Title: Constant values
Date: May 14 2020   08:35:30
Plotname: constants
Flags: real
No. Variables: 2
No. Points: 1
Variables:
	0	yes	notype
	1	ymax	notype
Values:
 0	1.000000000000000e+00
	3.456432000000000e-02

Title: Constant values
Date: May 14 2020   08:35:30
Plotname: constants
Flags: real
No. Variables: 2
No. Points: 1
Variables:
	0	yes	notype
	1	ymax	notype
Values:
 0	1.000000000000000e+00
	6.912840000000001e-02

Title: Constant values
Date: May 14 2020   08:35:30
Plotname: constants
Flags: real
No. Variables: 2
No. Points: 1
Variables:
	0	yes	notype
	1	ymax	notype
Values:
 0	1.000000000000000e+00
	1.382565000000000e-01

Title: Constant values
Date: May 14 2020   08:35:30
Plotname: constants
Flags: real
No. Variables: 2
No. Points: 1
Variables:
	0	yes	notype
	1	ymax	notype
Values:
 0	1.000000000000000e+00
	3.456378000000000e-01

Title: Constant values
Date: May 14 2020   08:35:30
Plotname: constants
Flags: real
No. Variables: 2
No. Points: 1
Variables:
	0	yes	notype
	1	ymax	notype
Values:
 0	1.000000000000000e+00
	6.912419000000001e-01

Title: Constant values
Date: May 14 2020   08:35:30
Plotname: constants
Flags: real
No. Variables: 2
No. Points: 1
Variables:
	0	yes	notype
	1	ymax	notype
Values:
 0	1.000000000000000e+00
	1.382209000000000e+00

