Title: hipass.cir - 1 hipass circuit
Date: Wed Dec 16 11:35:11  2020
Plotname: AC Analysis
Flags: complex
No. Variables: 2
No. Points: 301
Variables:
	0	frequency	frequency grid=3
	1	outdb	notype
Values:
 0	1.000000000000000e+02,0.000000000000000e+00
	-3.776134939882497e+01,0.0

 1	1.023292992280754e+02,0.000000000000000e+00
	-3.737237114642195e+01,0.0

 2	1.047128548050899e+02,0.000000000000000e+00
	-3.698303743630990e+01,0.0

 3	1.071519305237606e+02,0.000000000000000e+00
	-3.659336862129538e+01,0.0

 4	1.096478196143185e+02,0.000000000000000e+00
	-3.620338460544834e+01,0.0

 5	1.122018454301963e+02,0.000000000000000e+00
	-3.581310487211565e+01,0.0

 6	1.148153621496882e+02,0.000000000000000e+00
	-3.542254851277254e+01,0.0

 7	1.174897554939529e+02,0.000000000000000e+00
	-3.503173425667743e+01,0.0

 8	1.202264434617412e+02,0.000000000000000e+00
	-3.464068050137358e+01,0.0

 9	1.230268770812381e+02,0.000000000000000e+00
	-3.424940534401421e+01,0.0

 10	1.258925411794167e+02,0.000000000000000e+00
	-3.385792661356700e+01,0.0

 11	1.288249551693133e+02,0.000000000000000e+00
	-3.346626190391996e+01,0.0

 12	1.318256738556406e+02,0.000000000000000e+00
	-3.307442860793522e+01,0.0

 13	1.348962882591653e+02,0.000000000000000e+00
	-3.268244395251659e+01,0.0

 14	1.380384264602884e+02,0.000000000000000e+00
	-3.229032503474550e+01,0.0

 15	1.412537544622753e+02,0.000000000000000e+00
	-3.189808885917998e+01,0.0

 16	1.445439770745926e+02,0.000000000000000e+00
	-3.150575237639463e+01,0.0

 17	1.479108388168206e+02,0.000000000000000e+00
	-3.111333252286631e+01,0.0

 18	1.513561248436207e+02,0.000000000000000e+00
	-3.072084626231745e+01,0.0

 19	1.548816618912480e+02,0.000000000000000e+00
	-3.032831062865235e+01,0.0

 20	1.584893192461112e+02,0.000000000000000e+00
	-2.993574277059898e+01,0.0

 21	1.621810097358928e+02,0.000000000000000e+00
	-2.954315999823995e+01,0.0

 22	1.659586907437559e+02,0.000000000000000e+00
	-2.915057983156318e+01,0.0

 23	1.698243652461743e+02,0.000000000000000e+00
	-2.875802005123335e+01,0.0

 24	1.737800828749374e+02,0.000000000000000e+00
	-2.836549875176225e+01,0.0

 25	1.778279410038921e+02,0.000000000000000e+00
	-2.797303439727977e+01,0.0

 26	1.819700858609981e+02,0.000000000000000e+00
	-2.758064588014501e+01,0.0

 27	1.862087136662865e+02,0.000000000000000e+00
	-2.718835258260470e+01,0.0

 28	1.905460717963245e+02,0.000000000000000e+00
	-2.679617444177328e+01,0.0

 29	1.949844599758043e+02,0.000000000000000e+00
	-2.640413201818802e+01,0.0

 30	1.995262314968877e+02,0.000000000000000e+00
	-2.601224656822662e+01,0.0

 31	2.041737944669526e+02,0.000000000000000e+00
	-2.562054012067721e+01,0.0

 32	2.089296130854036e+02,0.000000000000000e+00
	-2.522903555778944e+01,0.0

 33	2.137962089502229e+02,0.000000000000000e+00
	-2.483775670111406e+01,0.0

 34	2.187761623949549e+02,0.000000000000000e+00
	-2.444672840250286e+01,0.0

 35	2.238721138568336e+02,0.000000000000000e+00
	-2.405597664059004e+01,0.0

 36	2.290867652767769e+02,0.000000000000000e+00
	-2.366552862315713e+01,0.0

 37	2.344228815319918e+02,0.000000000000000e+00
	-2.327541289574381e+01,0.0

 38	2.398832919019486e+02,0.000000000000000e+00
	-2.288565945688950e+01,0.0

 39	2.454708915685026e+02,0.000000000000000e+00
	-2.249629988040825e+01,0.0

 40	2.511886431509576e+02,0.000000000000000e+00
	-2.210736744507479e+01,0.0

 41	2.570395782768859e+02,0.000000000000000e+00
	-2.171889727212802e+01,0.0

 42	2.630267991895378e+02,0.000000000000000e+00
	-2.133092647094578e+01,0.0

 43	2.691534803926911e+02,0.000000000000000e+00
	-2.094349429326943e+01,0.0

 44	2.754228703338161e+02,0.000000000000000e+00
	-2.055664229630381e+01,0.0

 45	2.818382931264449e+02,0.000000000000000e+00
	-2.017041451498095e+01,0.0

 46	2.884031503126600e+02,0.000000000000000e+00
	-1.978485764364939e+01,0.0

 47	2.951209226666380e+02,0.000000000000000e+00
	-1.940002122736053e+01,0.0

 48	3.019951720402011e+02,0.000000000000000e+00
	-1.901595786285023e+01,0.0

 49	3.090295432513585e+02,0.000000000000000e+00
	-1.863272340923685e+01,0.0

 50	3.162277660168373e+02,0.000000000000000e+00
	-1.825037720829438e+01,0.0

 51	3.235936569296276e+02,0.000000000000000e+00
	-1.786898231405168e+01,0.0

 52	3.311311214825905e+02,0.000000000000000e+00
	-1.748860573126002e+01,0.0

 53	3.388441561392019e+02,0.000000000000000e+00
	-1.710931866209832e+01,0.0

 54	3.467368504525310e+02,0.000000000000000e+00
	-1.673119676020420e+01,0.0

 55	3.548133892335748e+02,0.000000000000000e+00
	-1.635432039087680e+01,0.0

 56	3.630780547701006e+02,0.000000000000000e+00
	-1.597877489593907e+01,0.0

 57	3.715352290971718e+02,0.000000000000000e+00
	-1.560465086140104e+01,0.0

 58	3.801893963205604e+02,0.000000000000000e+00
	-1.523204438564982e+01,0.0

 59	3.890451449942798e+02,0.000000000000000e+00
	-1.486105734541241e+01,0.0

 60	3.981071705534964e+02,0.000000000000000e+00
	-1.449179765623130e+01,0.0

 61	4.073802778041119e+02,0.000000000000000e+00
	-1.412437952363789e+01,0.0

 62	4.168693834703345e+02,0.000000000000000e+00
	-1.375892368058676e+01,0.0

 63	4.265795188015917e+02,0.000000000000000e+00
	-1.339555760607162e+01,0.0

 64	4.365158322401650e+02,0.000000000000000e+00
	-1.303441571915138e+01,0.0

 65	4.466835921509621e+02,0.000000000000000e+00
	-1.267563954194658e+01,0.0

 66	4.570881896148740e+02,0.000000000000000e+00
	-1.231937782440907e+01,0.0

 67	4.677351412871971e+02,0.000000000000000e+00
	-1.196578662302734e+01,0.0

 68	4.786300923226372e+02,0.000000000000000e+00
	-1.161502932495799e+01,0.0

 69	4.897788193684450e+02,0.000000000000000e+00
	-1.126727660851010e+01,0.0

 70	5.011872336272710e+02,0.000000000000000e+00
	-1.092270633044653e+01,0.0

 71	5.128613839913636e+02,0.000000000000000e+00
	-1.058150333028587e+01,0.0

 72	5.248074602497713e+02,0.000000000000000e+00
	-1.024385914163730e+01,0.0

 73	5.370317963702514e+02,0.000000000000000e+00
	-9.909971600817734e+00,0.0

 74	5.495408738576232e+02,0.000000000000000e+00
	-9.580044343421104e+00,0.0

 75	5.623413251903477e+02,0.000000000000000e+00
	-9.254286180334297e+00,0.0

 76	5.754399373371555e+02,0.000000000000000e+00
	-8.932910345962192e+00,0.0

 77	5.888436553555874e+02,0.000000000000000e+00
	-8.616133613084378e+00,0.0

 78	6.025595860743562e+02,0.000000000000000e+00
	-8.304175270949624e+00,0.0

 79	6.165950018614806e+02,0.000000000000000e+00
	-7.997255965891954e+00,0.0

 80	6.309573444801916e+02,0.000000000000000e+00
	-7.695596406921271e+00,0.0

 81	6.456542290346539e+02,0.000000000000000e+00
	-7.399415942324898e+00,0.0

 82	6.606934480075944e+02,0.000000000000000e+00
	-7.108931017355835e+00,0.0

 83	6.760829753919801e+02,0.000000000000000e+00
	-6.824353527329095e+00,0.0

 84	6.918309709189348e+02,0.000000000000000e+00
	-6.545889084896158e+00,0.0

 85	7.079457843841361e+02,0.000000000000000e+00
	-6.273735224648075e+00,0.0

 86	7.244359600749882e+02,0.000000000000000e+00
	-6.008079572378429e+00,0.0

 87	7.413102413009155e+02,0.000000000000000e+00
	-5.749098010066895e+00,0.0

 88	7.585775750291817e+02,0.000000000000000e+00
	-5.496952870679658e+00,0.0

 89	7.762471166286896e+02,0.000000000000000e+00
	-5.251791199064994e+00,0.0

 90	7.943282347242792e+02,0.000000000000000e+00
	-5.013743116259374e+00,0.0

 91	8.128305161640969e+02,0.000000000000000e+00
	-4.782920324345923e+00,0.0

 92	8.317637711026687e+02,0.000000000000000e+00
	-4.559414787448468e+00,0.0

 93	8.511380382023741e+02,0.000000000000000e+00
	-4.343297621511486e+00,0.0

 94	8.709635899560782e+02,0.000000000000000e+00
	-4.134618221230012e+00,0.0

 95	8.912509381337430e+02,0.000000000000000e+00
	-3.933403646973186e+00,0.0

 96	9.120108393559071e+02,0.000000000000000e+00
	-3.739658288069407e+00,0.0

 97	9.332543007969883e+02,0.000000000000000e+00
	-3.553363811503785e+00,0.0

 98	9.549925860214331e+02,0.000000000000000e+00
	-3.374479397451336e+00,0.0

 99	9.772372209558077e+02,0.000000000000000e+00
	-3.202942255303342e+00,0.0

 100	9.999999999999969e+02,0.000000000000000e+00
	-3.038668406400726e+00,0.0

 101	1.023292992280751e+03,0.000000000000000e+00
	-2.881553712861240e+00,0.0

 102	1.047128548050896e+03,0.000000000000000e+00
	-2.731475126011106e+00,0.0

 103	1.071519305237603e+03,0.000000000000000e+00
	-2.588292123153269e+00,0.0

 104	1.096478196143182e+03,0.000000000000000e+00
	-2.451848298009521e+00,0.0

 105	1.122018454301960e+03,0.000000000000000e+00
	-2.321973068085649e+00,0.0

 106	1.148153621496879e+03,0.000000000000000e+00
	-2.198483461563741e+00,0.0

 107	1.174897554939526e+03,0.000000000000000e+00
	-2.081185946935642e+00,0.0

 108	1.202264434617409e+03,0.000000000000000e+00
	-1.969878270383740e+00,0.0

 109	1.230268770812377e+03,0.000000000000000e+00
	-1.864351268659323e+00,0.0

 110	1.258925411794163e+03,0.000000000000000e+00
	-1.764390628728722e+00,0.0

 111	1.288249551693130e+03,0.000000000000000e+00
	-1.669778569488762e+00,0.0

 112	1.318256738556403e+03,0.000000000000000e+00
	-1.580295425187481e+00,0.0

 113	1.348962882591649e+03,0.000000000000000e+00
	-1.495721114638778e+00,0.0

 114	1.380384264602880e+03,0.000000000000000e+00
	-1.415836484652574e+00,0.0

 115	1.412537544622749e+03,0.000000000000000e+00
	-1.340424520224088e+00,0.0

 116	1.445439770745922e+03,0.000000000000000e+00
	-1.269271417786256e+00,0.0

 117	1.479108388168202e+03,0.000000000000000e+00
	-1.202167521168480e+00,0.0

 118	1.513561248436203e+03,0.000000000000000e+00
	-1.138908122734945e+00,0.0

 119	1.548816618912476e+03,0.000000000000000e+00
	-1.079294134558346e+00,0.0

 120	1.584893192461108e+03,0.000000000000000e+00
	-1.023132636327710e+00,0.0

 121	1.621810097358924e+03,0.000000000000000e+00
	-9.702373080912188e-01,0.0

 122	1.659586907437555e+03,0.000000000000000e+00
	-9.204287569046099e-01,0.0

 123	1.698243652461738e+03,0.000000000000000e+00
	-8.735347470431745e-01,0.0

 124	1.737800828749369e+03,0.000000000000000e+00
	-8.293903436897156e-01,0.0

 125	1.778279410038916e+03,0.000000000000000e+00
	-7.878379800030761e-01,0.0

 126	1.819700858609976e+03,0.000000000000000e+00
	-7.487274572318979e-01,0.0

 127	1.862087136662860e+03,0.000000000000000e+00
	-7.119158871314228e-01,0.0

 128	1.905460717963240e+03,0.000000000000000e+00
	-6.772675854079441e-01,0.0

 129	1.949844599758038e+03,0.000000000000000e+00
	-6.446539242915836e-01,0.0

 130	1.995262314968872e+03,0.000000000000000e+00
	-6.139531516617026e-01,0.0

 131	2.041737944669521e+03,0.000000000000000e+00
	-5.850501834511620e-01,0.0

 132	2.089296130854031e+03,0.000000000000000e+00
	-5.578363753449616e-01,0.0

 133	2.137962089502224e+03,0.000000000000000e+00
	-5.322092791055959e-01,0.0

 134	2.187761623949544e+03,0.000000000000000e+00
	-5.080723881895945e-01,0.0

 135	2.238721138568330e+03,0.000000000000000e+00
	-4.853348766996108e-01,0.0

 136	2.290867652767764e+03,0.000000000000000e+00
	-4.639113351356778e-01,0.0

 137	2.344228815319912e+03,0.000000000000000e+00
	-4.437215058754105e-01,0.0

 138	2.398832919019480e+03,0.000000000000000e+00
	-4.246900208340432e-01,0.0

 139	2.454708915685020e+03,0.000000000000000e+00
	-4.067461433164717e-01,0.0

 140	2.511886431509570e+03,0.000000000000000e+00
	-3.898235156966822e-01,0.0

 141	2.570395782768853e+03,0.000000000000000e+00
	-3.738599142101720e-01,0.0

 142	2.630267991895371e+03,0.000000000000000e+00
	-3.587970118605919e-01,0.0

 143	2.691534803926904e+03,0.000000000000000e+00
	-3.445801501765219e-01,0.0

 144	2.754228703338154e+03,0.000000000000000e+00
	-3.311581203391864e-01,0.0

 145	2.818382931264442e+03,0.000000000000000e+00
	-3.184829540167775e-01,0.0

 146	2.884031503126593e+03,0.000000000000000e+00
	-3.065097240793418e-01,0.0

 147	2.951209226666373e+03,0.000000000000000e+00
	-2.951963552431272e-01,0.0

 148	3.019951720402003e+03,0.000000000000000e+00
	-2.845034445820123e-01,0.0

 149	3.090295432513577e+03,0.000000000000000e+00
	-2.743940917593425e-01,0.0

 150	3.162277660168365e+03,0.000000000000000e+00
	-2.648337387617006e-01,0.0

 151	3.235936569296268e+03,0.000000000000000e+00
	-2.557900188651350e-01,0.0

 152	3.311311214825896e+03,0.000000000000000e+00
	-2.472326145201458e-01,0.0

 153	3.388441561392010e+03,0.000000000000000e+00
	-2.391331238135112e-01,0.0

 154	3.467368504525300e+03,0.000000000000000e+00
	-2.314649351432896e-01,0.0

 155	3.548133892335738e+03,0.000000000000000e+00
	-2.242031097323950e-01,0.0

 156	3.630780547700997e+03,0.000000000000000e+00
	-2.173242715964329e-01,0.0

 157	3.715352290971708e+03,0.000000000000000e+00
	-2.108065045824865e-01,0.0

 158	3.801893963205594e+03,0.000000000000000e+00
	-2.046292560991254e-01,0.0

 159	3.890451449942787e+03,0.000000000000000e+00
	-1.987732471616737e-01,0.0

 160	3.981071705534953e+03,0.000000000000000e+00
	-1.932203883893318e-01,0.0

 161	4.073802778041108e+03,0.000000000000000e+00
	-1.879537015990346e-01,0.0

 162	4.168693834703334e+03,0.000000000000000e+00
	-1.829572466559490e-01,0.0

 163	4.265795188015905e+03,0.000000000000000e+00
	-1.782160532525791e-01,0.0

 164	4.365158322401638e+03,0.000000000000000e+00
	-1.737160573046416e-01,0.0

 165	4.466835921509609e+03,0.000000000000000e+00
	-1.694440416652721e-01,0.0

 166	4.570881896148728e+03,0.000000000000000e+00
	-1.653875808760928e-01,0.0

 167	4.677351412871959e+03,0.000000000000000e+00
	-1.615349896862051e-01,0.0

 168	4.786300923226359e+03,0.000000000000000e+00
	-1.578752750892053e-01,0.0

 169	4.897788193684437e+03,0.000000000000000e+00
	-1.543980916373855e-01,0.0

 170	5.011872336272697e+03,0.000000000000000e+00
	-1.510936998126239e-01,0.0

 171	5.128613839913622e+03,0.000000000000000e+00
	-1.479529272415478e-01,0.0

 172	5.248074602497698e+03,0.000000000000000e+00
	-1.449671325603676e-01,0.0

 173	5.370317963702499e+03,0.000000000000000e+00
	-1.421281717440471e-01,0.0

 174	5.495408738576216e+03,0.000000000000000e+00
	-1.394283667284788e-01,0.0

 175	5.623413251903460e+03,0.000000000000000e+00
	-1.368604761646474e-01,0.0

 176	5.754399373371538e+03,0.000000000000000e+00
	-1.344176681558659e-01,0.0

 177	5.888436553555857e+03,0.000000000000000e+00
	-1.320934948372130e-01,0.0

 178	6.025595860743544e+03,0.000000000000000e+00
	-1.298818686685222e-01,0.0

 179	6.165950018614787e+03,0.000000000000000e+00
	-1.277770403187594e-01,0.0

 180	6.309573444801897e+03,0.000000000000000e+00
	-1.257735780306915e-01,0.0

 181	6.456542290346518e+03,0.000000000000000e+00
	-1.238663483600628e-01,0.0

 182	6.606934480075922e+03,0.000000000000000e+00
	-1.220504981928152e-01,0.0

 183	6.760829753919778e+03,0.000000000000000e+00
	-1.203214379501721e-01,0.0

 184	6.918309709189324e+03,0.000000000000000e+00
	-1.186748258976921e-01,0.0

 185	7.079457843841337e+03,0.000000000000000e+00
	-1.171065534807826e-01,0.0

 186	7.244359600749857e+03,0.000000000000000e+00
	-1.156127316143613e-01,0.0

 187	7.413102413009131e+03,0.000000000000000e+00
	-1.141896778602029e-01,0.0

 188	7.585775750291792e+03,0.000000000000000e+00
	-1.128339044294905e-01,0.0

 189	7.762471166286870e+03,0.000000000000000e+00
	-1.115421069536289e-01,0.0

 190	7.943282347242766e+03,0.000000000000000e+00
	-1.103111539694151e-01,0.0

 191	8.128305161640942e+03,0.000000000000000e+00
	-1.091380770695457e-01,0.0

 192	8.317637711026659e+03,0.000000000000000e+00
	-1.080200616725831e-01,0.0

 193	8.511380382023712e+03,0.000000000000000e+00
	-1.069544383696415e-01,0.0

 194	8.709635899560752e+03,0.000000000000000e+00
	-1.059386748087282e-01,0.0

 195	8.912509381337399e+03,0.000000000000000e+00
	-1.049703680797099e-01,0.0

 196	9.120108393559040e+03,0.000000000000000e+00
	-1.040472375666326e-01,0.0

 197	9.332543007969851e+03,0.000000000000000e+00
	-1.031671182353634e-01,0.0

 198	9.549925860214298e+03,0.000000000000000e+00
	-1.023279543277247e-01,0.0

 199	9.772372209558043e+03,0.000000000000000e+00
	-1.015277934349603e-01,0.0

 200	9.999999999999935e+03,0.000000000000000e+00
	-1.007647809252222e-01,0.0

 201	1.023292992280747e+04,0.000000000000000e+00
	-1.000371547022814e-01,0.0

 202	1.047128548050893e+04,0.000000000000000e+00
	-9.934324027303229e-02,0.0

 203	1.071519305237599e+04,0.000000000000000e+00
	-9.868144610439422e-02,0.0

 204	1.096478196143178e+04,0.000000000000000e+00
	-9.805025925040166e-02,0.0

 205	1.122018454301956e+04,0.000000000000000e+00
	-9.744824123244450e-02,0.0

 206	1.148153621496875e+04,0.000000000000000e+00
	-9.687402415630342e-02,0.0

 207	1.174897554939522e+04,0.000000000000000e+00
	-9.632630705102500e-02,0.0

 208	1.202264434617405e+04,0.000000000000000e+00
	-9.580385241574160e-02,0.0

 209	1.230268770812373e+04,0.000000000000000e+00
	-9.530548296130845e-02,0.0

 210	1.258925411794159e+04,0.000000000000000e+00
	-9.483007853458290e-02,0.0

 211	1.288249551693125e+04,0.000000000000000e+00
	-9.437657321451884e-02,0.0

 212	1.318256738556398e+04,0.000000000000000e+00
	-9.394395256883160e-02,0.0

 213	1.348962882591644e+04,0.000000000000000e+00
	-9.353125106205468e-02,0.0

 214	1.380384264602875e+04,0.000000000000000e+00
	-9.313754960579061e-02,0.0

 215	1.412537544622745e+04,0.000000000000000e+00
	-9.276197324213113e-02,0.0

 216	1.445439770745918e+04,0.000000000000000e+00
	-9.240368895301478e-02,0.0

 217	1.479108388168197e+04,0.000000000000000e+00
	-9.206190358755055e-02,0.0

 218	1.513561248436198e+04,0.000000000000000e+00
	-9.173586190060098e-02,0.0

 219	1.548816618912471e+04,0.000000000000000e+00
	-9.142484469616724e-02,0.0

 220	1.584893192461102e+04,0.000000000000000e+00
	-9.112816706950908e-02,0.0

 221	1.621810097358919e+04,0.000000000000000e+00
	-9.084517674213256e-02,0.0

 222	1.659586907437549e+04,0.000000000000000e+00
	-9.057525248472571e-02,0.0

 223	1.698243652461732e+04,0.000000000000000e+00
	-9.031780262268743e-02,0.0

 224	1.737800828749363e+04,0.000000000000000e+00
	-9.007226361999157e-02,0.0

 225	1.778279410038910e+04,0.000000000000000e+00
	-8.983809873660686e-02,0.0

 226	1.819700858609970e+04,0.000000000000000e+00
	-8.961479675581410e-02,0.0

 227	1.862087136662854e+04,0.000000000000000e+00
	-8.940187077736758e-02,0.0

 228	1.905460717963233e+04,0.000000000000000e+00
	-8.919885707280069e-02,0.0

 229	1.949844599758031e+04,0.000000000000000e+00
	-8.900531399994310e-02,0.0

 230	1.995262314968865e+04,0.000000000000000e+00
	-8.882082097299571e-02,0.0

 231	2.041737944669514e+04,0.000000000000000e+00
	-8.864497748548111e-02,0.0

 232	2.089296130854024e+04,0.000000000000000e+00
	-8.847740218327879e-02,0.0

 233	2.137962089502216e+04,0.000000000000000e+00
	-8.831773198499442e-02,0.0

 234	2.187761623949536e+04,0.000000000000000e+00
	-8.816562124738295e-02,0.0

 235	2.238721138568323e+04,0.000000000000000e+00
	-8.802074097324325e-02,0.0

 236	2.290867652767756e+04,0.000000000000000e+00
	-8.788277805999957e-02,0.0

 237	2.344228815319905e+04,0.000000000000000e+00
	-8.775143458651660e-02,0.0

 238	2.398832919019472e+04,0.000000000000000e+00
	-8.762642713651400e-02,0.0

 239	2.454708915685012e+04,0.000000000000000e+00
	-8.750748615666004e-02,0.0

 240	2.511886431509561e+04,0.000000000000000e+00
	-8.739435534756815e-02,0.0

 241	2.570395782768844e+04,0.000000000000000e+00
	-8.728679108623558e-02,0.0

 242	2.630267991895361e+04,0.000000000000000e+00
	-8.718456187841736e-02,0.0

 243	2.691534803926895e+04,0.000000000000000e+00
	-8.708744783922494e-02,0.0

 244	2.754228703338145e+04,0.000000000000000e+00
	-8.699524020107299e-02,0.0

 245	2.818382931264431e+04,0.000000000000000e+00
	-8.690774084731852e-02,0.0

 246	2.884031503126583e+04,0.000000000000000e+00
	-8.682476187053728e-02,0.0

 247	2.951209226666362e+04,0.000000000000000e+00
	-8.674612515449349e-02,0.0

 248	3.019951720401992e+04,0.000000000000000e+00
	-8.667166197840388e-02,0.0

 249	3.090295432513566e+04,0.000000000000000e+00
	-8.660121264281882e-02,0.0

 250	3.162277660168354e+04,0.000000000000000e+00
	-8.653462611603048e-02,0.0

 251	3.235936569296257e+04,0.000000000000000e+00
	-8.647175970013783e-02,0.0

 252	3.311311214825884e+04,0.000000000000000e+00
	-8.641247871602439e-02,0.0

 253	3.388441561391998e+04,0.000000000000000e+00
	-8.635665620642141e-02,0.0

 254	3.467368504525288e+04,0.000000000000000e+00
	-8.630417265627846e-02,0.0

 255	3.548133892335725e+04,0.000000000000000e+00
	-8.625491572992526e-02,0.0

 256	3.630780547700983e+04,0.000000000000000e+00
	-8.620878002417913e-02,0.0

 257	3.715352290971694e+04,0.000000000000000e+00
	-8.616566683697112e-02,0.0

 258	3.801893963205580e+04,0.000000000000000e+00
	-8.612548395085204e-02,0.0

 259	3.890451449942774e+04,0.000000000000000e+00
	-8.608814543083529e-02,0.0

 260	3.981071705534939e+04,0.000000000000000e+00
	-8.605357143619705e-02,0.0

 261	4.073802778041093e+04,0.000000000000000e+00
	-8.602168804572931e-02,0.0

 262	4.168693834703319e+04,0.000000000000000e+00
	-8.599242709589411e-02,0.0

 263	4.265795188015891e+04,0.000000000000000e+00
	-8.596572603177610e-02,0.0

 264	4.365158322401623e+04,0.000000000000000e+00
	-8.594152777023201e-02,0.0

 265	4.466835921509593e+04,0.000000000000000e+00
	-8.591978057502192e-02,0.0

 266	4.570881896148711e+04,0.000000000000000e+00
	-8.590043794358319e-02,0.0

 267	4.677351412871941e+04,0.000000000000000e+00
	-8.588345850526284e-02,0.0

 268	4.786300923226342e+04,0.000000000000000e+00
	-8.586880593065326e-02,0.0

 269	4.897788193684419e+04,0.000000000000000e+00
	-8.585644885182779e-02,0.0

 270	5.011872336272679e+04,0.000000000000000e+00
	-8.584636079343139e-02,0.0

 271	5.128613839913603e+04,0.000000000000000e+00
	-8.583852011420713e-02,0.0

 272	5.248074602497679e+04,0.000000000000000e+00
	-8.583290995908047e-02,0.0

 273	5.370317963702479e+04,0.000000000000000e+00
	-8.582951822154920e-02,0.0

 274	5.495408738576196e+04,0.000000000000000e+00
	-8.582833751610777e-02,0.0

 275	5.623413251903440e+04,0.000000000000000e+00
	-8.582936516111844e-02,0.0

 276	5.754399373371517e+04,0.000000000000000e+00
	-8.583260317149694e-02,0.0

 277	5.888436553555836e+04,0.000000000000000e+00
	-8.583805826169080e-02,0.0

 278	6.025595860743523e+04,0.000000000000000e+00
	-8.584574185855114e-02,0.0

 279	6.165950018614766e+04,0.000000000000000e+00
	-8.585567012433154e-02,0.0

 280	6.309573444801875e+04,0.000000000000000e+00
	-8.586786398990748e-02,0.0

 281	6.456542290346495e+04,0.000000000000000e+00
	-8.588234919795346e-02,0.0

 282	6.606934480075899e+04,0.000000000000000e+00
	-8.589915635667954e-02,0.0

 283	6.760829753919755e+04,0.000000000000000e+00
	-8.591832100359671e-02,0.0

 284	6.918309709189301e+04,0.000000000000000e+00
	-8.593988368003722e-02,0.0

 285	7.079457843841314e+04,0.000000000000000e+00
	-8.596389001620873e-02,0.0

 286	7.244359600749834e+04,0.000000000000000e+00
	-8.599039082702575e-02,0.0

 287	7.413102413009107e+04,0.000000000000000e+00
	-8.601944221907878e-02,0.0

 288	7.585775750291768e+04,0.000000000000000e+00
	-8.605110570865915e-02,0.0

 289	7.762471166286846e+04,0.000000000000000e+00
	-8.608544835143790e-02,0.0

 290	7.943282347242742e+04,0.000000000000000e+00
	-8.612254288369882e-02,0.0

 291	8.128305161640918e+04,0.000000000000000e+00
	-8.616246787579546e-02,0.0

 292	8.317637711026634e+04,0.000000000000000e+00
	-8.620530789776804e-02,0.0

 293	8.511380382023688e+04,0.000000000000000e+00
	-8.625115369778394e-02,0.0

 294	8.709635899560727e+04,0.000000000000000e+00
	-8.630010239365279e-02,0.0

 295	8.912509381337374e+04,0.000000000000000e+00
	-8.635225767762789e-02,0.0

 296	9.120108393559014e+04,0.000000000000000e+00
	-8.640773003529501e-02,0.0

 297	9.332543007969824e+04,0.000000000000000e+00
	-8.646663697870968e-02,0.0

 298	9.549925860214271e+04,0.000000000000000e+00
	-8.652910329432784e-02,0.0

 299	9.772372209558016e+04,0.000000000000000e+00
	-8.659526130634761e-02,0.0

 300	9.999999999999907e+04,0.000000000000000e+00
	-8.666525115587727e-02,0.0

