Title: ce02t.cir - 1 transitor circuit
Date: Thu Sep 10 17:51:03  2020
Plotname: Transient Analysis
Flags: real
No. Variables: 2
No. Points: 209
Variables:
	0	time	time
	1	v(7)	voltage
Values:
 0	0.000000000000000e+00
	7.954585268325575e+00

 1	1.000000000000000e-07
	7.954070864106004e+00

 2	1.754554474836002e-07
	7.953658192821353e+00

 3	3.263663424508005e-07
	7.952798851280123e+00

 4	6.281881323852013e-07
	7.950902224939931e+00

 5	1.231831712254003e-06
	7.946548672334104e+00

 6	2.439118871991606e-06
	7.936402224918949e+00

 7	4.853693191466812e-06
	7.913536439523129e+00

 8	8.924453875721550e-06
	7.872859543622218e+00

 9	1.671713198244666e-05
	7.793845968788858e+00

 10	2.671713198244666e-05
	7.691201762903868e+00

 11	3.671713198244666e-05
	7.587470545680208e+00

 12	4.671713198244666e-05
	7.483160246309709e+00

 13	5.671713198244666e-05
	7.378745469306679e+00

 14	6.671713198244666e-05
	7.274766026610698e+00

 15	7.671713198244666e-05
	7.171764394994772e+00

 16	8.671713198244666e-05
	7.070317820769523e+00

 17	9.671713198244666e-05
	6.971010026817858e+00

 18	1.067171319824467e-04
	6.874442531818677e+00

 19	1.167171319824467e-04
	6.781216171328903e+00

 20	1.267171319824467e-04
	6.691935191348684e+00

 21	1.367171319824467e-04
	6.607191815078151e+00

 22	1.467171319824467e-04
	6.527567266930713e+00

 23	1.567171319824467e-04
	6.453617889796201e+00

 24	1.667171319824467e-04
	6.385874548865548e+00

 25	1.767171319824467e-04
	6.324830373861898e+00

 26	1.867171319824467e-04
	6.270939226208026e+00

 27	1.967171319824467e-04
	6.224605572952291e+00

 28	2.067171319824467e-04
	6.186182471570268e+00

 29	2.167171319824467e-04
	6.155964136017714e+00

 30	2.267171319824467e-04
	6.134183790285114e+00

 31	2.367171319824466e-04
	6.121009393456102e+00

 32	2.467171319824466e-04
	6.116541621538419e+00

 33	2.567171319824466e-04
	6.120813056751667e+00

 34	2.667171319824466e-04
	6.133786452101552e+00

 35	2.767171319824467e-04
	6.155357495616461e+00

 36	2.867171319824467e-04
	6.185353395899920e+00

 37	2.967171319824467e-04
	6.223539126974806e+00

 38	3.067171319824468e-04
	6.269616255445555e+00

 39	3.167171319824468e-04
	6.323232375097110e+00

 40	3.267171319824468e-04
	6.383979989992103e+00

 41	3.367171319824468e-04
	6.451408676223598e+00

 42	3.467171319824469e-04
	6.525023752760884e+00

 43	3.567171319824469e-04
	6.604300576078189e+00

 44	3.667171319824469e-04
	6.688682682624085e+00

 45	3.767171319824469e-04
	6.777597541380114e+00

 46	3.867171319824470e-04
	6.870453845970488e+00

 47	3.967171319824470e-04
	6.966658027125432e+00

 48	4.067171319824470e-04
	7.065610410557251e+00

 49	4.167171319824470e-04
	7.166721825573575e+00

 50	4.267171319824471e-04
	7.269408422942534e+00

 51	4.367171319824471e-04
	7.373107800730962e+00

 52	4.467171319824471e-04
	7.477272383740767e+00

 53	4.567171319824471e-04
	7.581384609902937e+00

 54	4.667171319824472e-04
	7.684948895080924e+00

 55	4.767171319824472e-04
	7.787505565000990e+00

 56	4.867171319824472e-04
	7.888621549148096e+00

 57	4.967171319824473e-04
	7.987902886183420e+00

 58	5.067171319824473e-04
	8.084984392427751e+00

 59	5.167171319824473e-04
	8.179540695916659e+00

 60	5.267171319824473e-04
	8.271275197143641e+00

 61	5.367171319824474e-04
	8.359929686767893e+00

 62	5.467171319824474e-04
	8.445272952776769e+00

 63	5.567171319824474e-04
	8.527109103779033e+00

 64	5.667171319824474e-04
	8.605266178132203e+00

 65	5.767171319824475e-04
	8.679603329049012e+00

 66	5.867171319824475e-04
	8.749999763135584e+00

 67	5.967171319824475e-04
	8.816360950223046e+00

 68	6.067171319824475e-04
	8.878608170058593e+00

 69	6.167171319824476e-04
	8.936683896701794e+00

 70	6.267171319824476e-04
	8.990542172781517e+00

 71	6.367171319824476e-04
	9.040153293489459e+00

 72	6.467171319824476e-04
	9.085495166885064e+00

 73	6.567171319824477e-04
	9.126557393860040e+00

 74	6.667171319824477e-04
	9.163333717385912e+00

 75	6.767171319824477e-04
	9.195825567464659e+00

 76	6.867171319824477e-04
	9.224035656619041e+00

 77	6.967171319824478e-04
	9.247971036568920e+00

 78	7.067171319824478e-04
	9.267637863244781e+00

 79	7.167171319824478e-04
	9.283043996187230e+00

 80	7.267171319824479e-04
	9.294194934356565e+00

 81	7.367171319824479e-04
	9.301095979713759e+00

 82	7.467171319824479e-04
	9.303749333145708e+00

 83	7.567171319824479e-04
	9.302155839757097e+00

 84	7.667171319824480e-04
	9.296313229913078e+00

 85	7.767171319824480e-04
	9.286217463304167e+00

 86	7.867171319824480e-04
	9.271862100397653e+00

 87	7.967171319824480e-04
	9.253239263392258e+00

 88	8.067171319824481e-04
	9.230340124870342e+00

 89	8.167171319824481e-04
	9.203155503891617e+00

 90	8.267171319824481e-04
	9.171677457970274e+00

 91	8.367171319824481e-04
	9.135899529570750e+00

 92	8.467171319824482e-04
	9.095819421277264e+00

 93	8.567171319824482e-04
	9.051438899599740e+00

 94	8.667171319824482e-04
	9.002767518330044e+00

 95	8.767171319824482e-04
	8.949822171133231e+00

 96	8.867171319824483e-04
	8.892631802461187e+00

 97	8.967171319824483e-04
	8.831236576678529e+00

 98	9.067171319824483e-04
	8.765693478363117e+00

 99	9.167171319824484e-04
	8.696075034489013e+00

 100	9.267171319824484e-04
	8.622475656973940e+00

 101	9.367171319824484e-04
	8.545009817950861e+00

 102	9.467171319824484e-04
	8.463818930500823e+00

 103	9.567171319824485e-04
	8.379068839878022e+00

 104	9.667171319824485e-04
	8.290956979592991e+00

 105	9.767171319824484e-04
	8.199709010899397e+00

 106	9.867171319824484e-04
	8.105585939308552e+00

 107	9.967171319824485e-04
	8.008879719972164e+00

 108	1.006717131982448e-03
	7.909919985047241e+00

 109	1.016717131982449e-03
	7.809068443118863e+00

 110	1.026717131982449e-03
	7.706724861366091e+00

 111	1.036717131982449e-03
	7.603320131153773e+00

 112	1.046717131982449e-03
	7.499321178609232e+00

 113	1.056717131982449e-03
	7.395222649548231e+00

 114	1.066717131982449e-03
	7.291550491658802e+00

 115	1.076717131982449e-03
	7.188852327517075e+00

 116	1.086717131982449e-03
	7.087699557074557e+00

 117	1.096717131982449e-03
	6.988676627773931e+00

 118	1.106717131982449e-03
	6.892381636769796e+00

 119	1.116717131982449e-03
	6.799414855155393e+00

 120	1.126717131982449e-03
	6.710377948297293e+00

 121	1.136717131982449e-03
	6.625862246539533e+00

 122	1.146717131982449e-03
	6.546446829242001e+00

 123	1.156717131982449e-03
	6.472687136160466e+00

 124	1.166717131982449e-03
	6.405112258168843e+00

 125	1.176717131982449e-03
	6.344214535159016e+00

 126	1.186717131982449e-03
	6.290446450469821e+00

 127	1.196717131982449e-03
	6.244211853821775e+00

 128	1.206717131982449e-03
	6.205862860922674e+00

 129	1.216717131982449e-03
	6.175693273137635e+00

 130	1.226717131982449e-03
	6.153935840366207e+00

 131	1.236717131982449e-03
	6.140758329826573e+00

 132	1.246717131982449e-03
	6.136261426653546e+00

 133	1.256717131982449e-03
	6.140477745180347e+00

 134	1.266717131982449e-03
	6.153370528799027e+00

 135	1.276717131982449e-03
	6.174835713580298e+00

 136	1.286717131982449e-03
	6.204701460472851e+00

 137	1.296717131982449e-03
	6.242733189200144e+00

 138	1.306717131982449e-03
	6.288633845106871e+00

 139	1.316717131982449e-03
	6.342051637880742e+00

 140	1.326717131982449e-03
	6.402580826535658e+00

 141	1.336717131982449e-03
	6.469771737837386e+00

 142	1.346717131982449e-03
	6.543131759382599e+00

 143	1.356717131982449e-03
	6.622137091343471e+00

 144	1.366717131982449e-03
	6.706233580410902e+00

 145	1.376717131982449e-03
	6.794849586417528e+00

 146	1.386717131982449e-03
	6.887396276792304e+00

 147	1.396717131982450e-03
	6.983280972876961e+00

 148	1.406717131982450e-03
	7.081906557700352e+00

 149	1.416717131982450e-03
	7.182684705099496e+00

 150	1.426717131982450e-03
	7.285034128905061e+00

 151	1.436717131982450e-03
	7.388393184338701e+00

 152	1.446717131982450e-03
	7.492216793771939e+00

 153	1.456717131982450e-03
	7.595988031052031e+00

 154	1.466717131982450e-03
	7.699213682900296e+00

 155	1.476717131982450e-03
	7.801434565476625e+00

 156	1.486717131982450e-03
	7.902219804093776e+00

 157	1.496717131982450e-03
	8.001175768978316e+00

 158	1.506717131982450e-03
	8.097939263094858e+00

 159	1.516717131982450e-03
	8.192185084983747e+00

 160	1.526717131982450e-03
	8.283618392930896e+00

 161	1.536717131982450e-03
	8.371980995043145e+00

 162	1.546717131982450e-03
	8.457043201935701e+00

 163	1.556717131982450e-03
	8.538609003299232e+00

 164	1.566717131982450e-03
	8.616507730093003e+00

 165	1.576717131982450e-03
	8.690598303236872e+00

 166	1.586717131982450e-03
	8.760761005855668e+00

 167	1.596717131982450e-03
	8.826900989066461e+00

 168	1.606717131982450e-03
	8.888940413128394e+00

 169	1.616717131982450e-03
	8.946821375407179e+00

 170	1.626717131982450e-03
	9.000498626405641e+00

 171	1.636717131982450e-03
	9.049942054592506e+00

 172	1.646717131982450e-03
	9.095130127629950e+00

 173	1.656717131982450e-03
	9.136052035419409e+00

 174	1.666717131982450e-03
	9.172701955702278e+00

 175	1.676717131982450e-03
	9.205080925545904e+00

 176	1.686717131982450e-03
	9.233191988418536e+00

 177	1.696717131982450e-03
	9.257041839395981e+00

 178	1.706717131982450e-03
	9.276636879085091e+00

 179	1.716717131982450e-03
	9.291984660286131e+00

 180	1.726717131982450e-03
	9.303090853826200e+00

 181	1.736717131982450e-03
	9.309960513695865e+00

 182	1.746717131982450e-03
	9.312595948775513e+00

 183	1.756717131982450e-03
	9.310997819005111e+00

 184	1.766717131982450e-03
	9.305163903108081e+00

 185	1.776717131982450e-03
	9.295090037718520e+00

 186	1.786717131982451e-03
	9.280769771508570e+00

 187	1.796717131982451e-03
	9.262195160237253e+00

 188	1.806717131982451e-03
	9.239357299297325e+00

 189	1.816717131982451e-03
	9.212246987977647e+00

 190	1.826717131982451e-03
	9.180856131384989e+00

 191	1.836717131982451e-03
	9.145178284405761e+00

 192	1.846717131982451e-03
	9.105210908122675e+00

 193	1.856717131982451e-03
	9.060955795014248e+00

 194	1.866717131982451e-03
	9.012422150835155e+00

 195	1.876717131982451e-03
	8.959626886592547e+00

 196	1.886717131982451e-03
	8.902598472058427e+00

 197	1.896717131982451e-03
	8.841377055395858e+00

 198	1.906717131982451e-03
	8.776018998613672e+00

 199	1.916717131982451e-03
	8.706596752500744e+00

 200	1.926717131982451e-03
	8.633203937926881e+00

 201	1.936717131982451e-03
	8.555954864662104e+00

 202	1.946717131982451e-03
	8.474989968681857e+00

 203	1.956717131982451e-03
	8.390474822888526e+00

 204	1.966717131982451e-03
	8.302605685742163e+00

 205	1.976717131982451e-03
	8.211607817187693e+00

 206	1.986717131982451e-03
	8.117740846297167e+00

 207	1.996717131982451e-03
	8.021296186348872e+00

 208	2.000000000000000e-03
	7.989123231910467e+00

Title: ce02t.cir - 1 transitor circuit
Date: Thu Sep 10 17:51:03  2020
Plotname: Transient Analysis
Flags: real
No. Variables: 2
No. Points: 208
Variables:
	0	time	time
	1	v(7)	voltage
Values:
 0	0.000000000000000e+00
	7.818788300511160e+00

 1	1.000000000000000e-07
	7.818132155116032e+00

 2	2.000000000000000e-07
	7.817445229809532e+00

 3	4.000000000000000e-07
	7.816036746566390e+00

 4	8.000000000000000e-07
	7.813046510590157e+00

 5	1.600000000000000e-06
	7.806557292811766e+00

 6	3.200000000000000e-06
	7.792421000594149e+00

 7	6.400000000000000e-06
	7.762441707924039e+00

 8	1.280000000000000e-05
	7.701071523540596e+00

 9	2.280000000000000e-05
	7.604088481112836e+00

 10	3.280000000000000e-05
	7.506050104380354e+00

 11	4.280000000000000e-05
	7.407414124223306e+00

 12	5.280000000000000e-05
	7.308620727750882e+00

 13	6.280000000000000e-05
	7.210157519625719e+00

 14	7.279999999999999e-05
	7.112524437299286e+00

 15	8.279999999999999e-05
	7.016243510636881e+00

 16	9.279999999999999e-05
	6.921851878611322e+00

 17	1.028000000000000e-04
	6.829894817872842e+00

 18	1.128000000000000e-04
	6.740925994696589e+00

 19	1.228000000000000e-04
	6.655495524710346e+00

 20	1.328000000000000e-04
	6.574151340548653e+00

 21	1.428000000000000e-04
	6.497426179948746e+00

 22	1.528000000000000e-04
	6.425838387232039e+00

 23	1.628000000000000e-04
	6.359879440629967e+00

 24	1.728000000000000e-04
	6.300013867424688e+00

 25	1.828000000000000e-04
	6.246668247386170e+00

 26	1.928000000000000e-04
	6.200230347090410e+00

 27	2.028000000000000e-04
	6.161040299421854e+00

 28	2.128000000000000e-04
	6.129389183484170e+00

 29	2.228000000000000e-04
	6.105512935377135e+00

 30	2.328000000000000e-04
	6.089590605299961e+00

 31	2.428000000000000e-04
	6.081741407152040e+00

 32	2.528000000000000e-04
	6.082022834898739e+00

 33	2.628000000000000e-04
	6.090431089801775e+00

 34	2.728000000000000e-04
	6.106899159147633e+00

 35	2.828000000000000e-04
	6.131300675196260e+00

 36	2.928000000000001e-04
	6.163447966948239e+00

 37	3.028000000000001e-04
	6.203099217350141e+00

 38	3.128000000000001e-04
	6.249956405893556e+00

 39	3.228000000000001e-04
	6.303675455182869e+00

 40	3.328000000000002e-04
	6.363863901339040e+00

 41	3.428000000000002e-04
	6.430093572484929e+00

 42	3.528000000000002e-04
	6.501897766049553e+00

 43	3.628000000000003e-04
	6.578785892408389e+00

 44	3.728000000000003e-04
	6.660239911951281e+00

 45	3.828000000000003e-04
	6.745730315588915e+00

 46	3.928000000000003e-04
	6.834711584392458e+00

 47	4.028000000000004e-04
	6.926638868783443e+00

 48	4.128000000000004e-04
	7.020962279036497e+00

 49	4.228000000000004e-04
	7.117143664294219e+00

 50	4.328000000000004e-04
	7.214649617777542e+00

 51	4.428000000000005e-04
	7.312967837488448e+00

 52	4.528000000000005e-04
	7.411598825409433e+00

 53	4.628000000000005e-04
	7.510071421002814e+00

 54	4.728000000000005e-04
	7.607933276065244e+00

 55	4.828000000000006e-04
	7.704765275026395e+00

 56	4.928000000000006e-04
	7.800170962796529e+00

 57	5.028000000000006e-04
	7.893789686902115e+00

 58	5.128000000000006e-04
	7.985285232959099e+00

 59	5.228000000000007e-04
	8.074357630325160e+00

 60	5.328000000000007e-04
	8.160731300583810e+00

 61	5.428000000000007e-04
	8.244165551994216e+00

 62	5.528000000000008e-04
	8.324442567633975e+00

 63	5.628000000000008e-04
	8.401376670665440e+00

 64	5.728000000000008e-04
	8.474802472015499e+00

 65	5.828000000000008e-04
	8.544583019241569e+00

 66	5.928000000000009e-04
	8.610598394317650e+00

 67	6.028000000000009e-04
	8.672752867846647e+00

 68	6.128000000000009e-04
	8.730964192794437e+00

 69	6.228000000000009e-04
	8.785169878973333e+00

 70	6.328000000000010e-04
	8.835317376562674e+00

 71	6.428000000000010e-04
	8.881369569681937e+00

 72	6.528000000000010e-04
	8.923295991095014e+00

 73	6.628000000000010e-04
	8.961077613752607e+00

 74	6.728000000000011e-04
	8.994699190619523e+00

 75	6.828000000000011e-04
	9.024153403845144e+00

 76	6.928000000000011e-04
	9.049434384491143e+00

 77	7.028000000000011e-04
	9.070541262701040e+00

 78	7.128000000000012e-04
	9.087472892755464e+00

 79	7.228000000000012e-04
	9.100230835884943e+00

 80	7.328000000000012e-04
	9.108815295901156e+00

 81	7.428000000000013e-04
	9.113227559097847e+00

 82	7.528000000000013e-04
	9.113467133739967e+00

 83	7.628000000000013e-04
	9.109533667573960e+00

 84	7.728000000000013e-04
	9.101425278348039e+00

 85	7.828000000000014e-04
	9.089139967941362e+00

 86	7.928000000000014e-04
	9.072675128174520e+00

 87	8.028000000000014e-04
	9.052028469324966e+00

 88	8.128000000000014e-04
	9.027198682778169e+00

 89	8.228000000000015e-04
	8.998185899593995e+00

 90	8.328000000000015e-04
	8.964993486040525e+00

 91	8.428000000000015e-04
	8.927628042415588e+00

 92	8.528000000000015e-04
	8.886102297025344e+00

 93	8.628000000000016e-04
	8.840434645384736e+00

 94	8.728000000000016e-04
	8.790653089907265e+00

 95	8.828000000000016e-04
	8.736794304114996e+00

 96	8.928000000000016e-04
	8.678908537966974e+00

 97	9.028000000000017e-04
	8.617058170380906e+00

 98	9.128000000000017e-04
	8.551323463372526e+00

 99	9.228000000000017e-04
	8.481800540401753e+00

 100	9.328000000000017e-04
	8.408607827994706e+00

 101	9.428000000000018e-04
	8.331883369590170e+00

 102	9.528000000000018e-04
	8.251791744380622e+00

 103	9.628000000000018e-04
	8.168520601469533e+00

 104	9.728000000000019e-04
	8.082287798150860e+00

 105	9.828000000000018e-04
	7.993337023181092e+00

 106	9.928000000000018e-04
	7.901944858084176e+00

 107	1.002800000000002e-03
	7.808415358764889e+00

 108	1.012800000000002e-03
	7.713086722123545e+00

 109	1.022800000000002e-03
	7.616324718664372e+00

 110	1.032800000000002e-03
	7.518528650720491e+00

 111	1.042800000000002e-03
	7.420123580331390e+00

 112	1.052800000000002e-03
	7.321565299828407e+00

 113	1.062800000000002e-03
	7.223331379996189e+00

 114	1.072800000000002e-03
	7.125924939850817e+00

 115	1.082800000000002e-03
	7.029864645763335e+00

 116	1.092800000000002e-03
	6.935687160695008e+00

 117	1.102800000000002e-03
	6.843936345867637e+00

 118	1.112800000000002e-03
	6.755164380286770e+00

 119	1.122800000000002e-03
	6.669920538293515e+00

 120	1.132800000000002e-03
	6.588751084326898e+00

 121	1.142800000000002e-03
	6.512188105340613e+00

 122	1.152800000000002e-03
	6.440748387654755e+00

 123	1.162800000000002e-03
	6.374922856815211e+00

 124	1.172800000000002e-03
	6.315174718950744e+00

 125	1.182800000000002e-03
	6.261930089733766e+00

 126	1.192800000000002e-03
	6.215575722178663e+00

 127	1.202800000000002e-03
	6.176451384457502e+00

 128	1.212800000000002e-03
	6.144847494878449e+00

 129	1.222800000000002e-03
	6.120999736226553e+00

 130	1.232800000000002e-03
	6.105086878286685e+00

 131	1.242800000000002e-03
	6.097228000321976e+00

 132	1.252800000000002e-03
	6.097480708411497e+00

 133	1.262800000000003e-03
	6.105841188675242e+00

 134	1.272800000000003e-03
	6.122242930342551e+00

 135	1.282800000000003e-03
	6.146559664153933e+00

 136	1.292800000000003e-03
	6.178604594046831e+00

 137	1.302800000000003e-03
	6.218136102715916e+00

 138	1.312800000000003e-03
	6.264857387649031e+00

 139	1.322800000000003e-03
	6.318424654302820e+00

 140	1.332800000000003e-03
	6.378446958392044e+00

 141	1.342800000000003e-03
	6.444496470923430e+00

 142	1.352800000000003e-03
	6.516108259545373e+00

 143	1.362800000000003e-03
	6.592792110880067e+00

 144	1.372800000000003e-03
	6.674031948176642e+00

 145	1.382800000000003e-03
	6.759298643390560e+00

 146	1.392800000000003e-03
	6.848048771091096e+00

 147	1.402800000000003e-03
	6.939737838886529e+00

 148	1.412800000000003e-03
	7.033818118394935e+00

 149	1.422800000000003e-03
	7.129751765371154e+00

 150	1.432800000000003e-03
	7.227007541858536e+00

 151	1.442800000000003e-03
	7.325073379079909e+00

 152	1.452800000000003e-03
	7.423451900393794e+00

 153	1.462800000000003e-03
	7.521672087779686e+00

 154	1.472800000000003e-03
	7.619283619984162e+00

 155	1.482800000000003e-03
	7.715867422590356e+00

 156	1.492800000000003e-03
	7.811028935642922e+00

 157	1.502800000000003e-03
	7.904407443029741e+00

 158	1.512800000000003e-03
	7.995668466796317e+00

 159	1.522800000000003e-03
	8.084511871405793e+00

 160	1.532800000000003e-03
	8.170663639741429e+00

 161	1.542800000000003e-03
	8.253882823721330e+00

 162	1.552800000000003e-03
	8.333952985771191e+00

 163	1.562800000000003e-03
	8.410688116000587e+00

 164	1.572800000000003e-03
	8.483924024130181e+00

 165	1.582800000000003e-03
	8.553523366240952e+00

 166	1.592800000000003e-03
	8.619367250261124e+00

 167	1.602800000000003e-03
	8.681359517014018e+00

 168	1.612800000000003e-03
	8.739418784800122e+00

 169	1.622800000000003e-03
	8.793482115876165e+00

 170	1.632800000000003e-03
	8.843497679956153e+00

 171	1.642800000000004e-03
	8.889427915436746e+00

 172	1.652800000000004e-03
	8.931242944583765e+00

 173	1.662800000000004e-03
	8.968923314124975e+00

 174	1.672800000000004e-03
	9.002454251909596e+00

 175	1.682800000000004e-03
	9.031828048401511e+00

 176	1.692800000000004e-03
	9.057039208815137e+00

 177	1.702800000000004e-03
	9.078086518138376e+00

 178	1.712800000000004e-03
	9.094969115744284e+00

 179	1.722800000000004e-03
	9.107688272812982e+00

 180	1.732800000000004e-03
	9.116244398177777e+00

 181	1.742800000000004e-03
	9.120638548286710e+00

 182	1.752800000000004e-03
	9.120870362199577e+00

 183	1.762800000000004e-03
	9.116939319690662e+00

 184	1.772800000000004e-03
	9.108843597666114e+00

 185	1.782800000000004e-03
	9.096581090170416e+00

 186	1.792800000000004e-03
	9.080149175770959e+00

 187	1.802800000000004e-03
	9.059545511924084e+00

 188	1.812800000000004e-03
	9.034768700436759e+00

 189	1.822800000000004e-03
	9.005818866082585e+00

 190	1.832800000000004e-03
	8.972699202294612e+00

 191	1.842800000000004e-03
	8.935416338094857e+00

 192	1.852800000000004e-03
	8.893982736019574e+00

 193	1.862800000000004e-03
	8.848416840969710e+00

 194	1.872800000000004e-03
	8.798746284981910e+00

 195	1.882800000000004e-03
	8.745007794848089e+00

 196	1.892800000000004e-03
	8.687251132560299e+00

 197	1.902800000000004e-03
	8.625538715698898e+00

 198	1.912800000000004e-03
	8.559950187693364e+00

 199	1.922800000000004e-03
	8.490581676758978e+00

 200	1.932800000000004e-03
	8.417550848459520e+00

 201	1.942800000000004e-03
	8.340995698208339e+00

 202	1.952800000000004e-03
	8.261079893163325e+00

 203	1.962800000000004e-03
	8.177990964647671e+00

 204	1.972800000000004e-03
	8.091945703019110e+00

 205	1.982800000000004e-03
	8.003187595983873e+00

 206	1.992800000000004e-03
	7.911992006228180e+00

 207	2.000000000000000e-03
	7.844988226008050e+00

Title: ce02t.cir - 1 transitor circuit
Date: Thu Sep 10 17:51:03  2020
Plotname: Transient Analysis
Flags: real
No. Variables: 2
No. Points: 213
Variables:
	0	time	time
	1	v(7)	voltage
Values:
 0	0.000000000000000e+00
	7.687762002018533e+00

 1	1.000000000000000e-07
	7.687708691280561e+00

 2	1.083866000951786e-07
	7.687703836391306e+00

 3	1.251598002855357e-07
	7.687693346362132e+00

 4	1.587062006662501e-07
	7.687667662458426e+00

 5	2.257990014276787e-07
	7.687597841548532e+00

 6	3.599846029505360e-07
	7.687388379428259e+00

 7	6.283558059962506e-07
	7.686719217833854e+00

 8	1.165098212087680e-06
	7.684571994657142e+00

 9	2.192308269467792e-06
	7.678431464683666e+00

 10	3.709336052697624e-06
	7.666713682901342e+00

 11	6.201846092385797e-06
	7.644990317567684e+00

 12	1.026788363443590e-05
	7.608055251775032e+00

 13	1.839995871853610e-05
	7.533347739397239e+00

 14	2.839995871853610e-05
	7.440588489876504e+00

 15	3.839995871853610e-05
	7.347168627270537e+00

 16	4.839995871853610e-05
	7.253529386499697e+00

 17	5.839995871853610e-05
	7.160098239029045e+00

 18	6.839995871853610e-05
	7.067342725893073e+00

 19	7.839995871853610e-05
	6.975736855848896e+00

 20	8.839995871853610e-05
	6.885774393245074e+00

 21	9.839995871853610e-05
	6.797955877192265e+00

 22	1.083999587185361e-04
	6.712789286724762e+00

 23	1.183999587185361e-04
	6.630782679100014e+00

 24	1.283999587185361e-04
	6.552440710976329e+00

 25	1.383999587185361e-04
	6.478258652008090e+00

 26	1.483999587185361e-04
	6.408717510016011e+00

 27	1.583999587185361e-04
	6.344278418362202e+00

 28	1.683999587185361e-04
	6.285377450242596e+00

 29	1.783999587185361e-04
	6.232420362752782e+00

 30	1.883999587185361e-04
	6.185777702352413e+00

 31	1.983999587185361e-04
	6.145780175617368e+00

 32	2.083999587185361e-04
	6.112714485991552e+00

 33	2.183999587185361e-04
	6.086819653672224e+00

 34	2.283999587185361e-04
	6.068283930335219e+00

 35	2.383999587185361e-04
	6.057242348773282e+00

 36	2.483999587185361e-04
	6.053774967213669e+00

 37	2.583999587185361e-04
	6.057905841068835e+00

 38	2.683999587185361e-04
	6.069602738139163e+00

 39	2.783999587185361e-04
	6.088777612146278e+00

 40	2.883999587185361e-04
	6.115287808724990e+00

 41	2.983999587185362e-04
	6.148937998381174e+00

 42	3.083999587185362e-04
	6.189482771120026e+00

 43	3.183999587185362e-04
	6.236629868636119e+00

 44	3.283999587185363e-04
	6.290043954369777e+00

 45	3.383999587185363e-04
	6.349350883401293e+00

 46	3.483999587185363e-04
	6.414142345781515e+00

 47	3.583999587185363e-04
	6.483980838397014e+00

 48	3.683999587185364e-04
	6.558404821684963e+00

 49	3.783999587185364e-04
	6.636934017787051e+00

 50	3.883999587185364e-04
	6.719074699732927e+00

 51	3.983999587185364e-04
	6.804324938048692e+00

 52	4.083999587185365e-04
	6.892179657981996e+00

 53	4.183999587185365e-04
	6.982135490932544e+00

 54	4.283999587185365e-04
	7.073695285696522e+00

 55	4.383999587185365e-04
	7.166372285614547e+00

 56	4.483999587185366e-04
	7.259693856103265e+00

 57	4.583999587185366e-04
	7.353204793774066e+00

 58	4.683999587185366e-04
	7.446470123843380e+00

 59	4.783999587185366e-04
	7.539077441756829e+00

 60	4.883999587185367e-04
	7.630638728402073e+00

 61	4.983999587185367e-04
	7.720791716284512e+00

 62	5.083999587185367e-04
	7.809200756551971e+00

 63	5.183999587185368e-04
	7.895557280352622e+00

 64	5.283999587185368e-04
	7.979579820860003e+00

 65	5.383999587185368e-04
	8.061013699187672e+00

 66	5.483999587185368e-04
	8.139630352016633e+00

 67	5.583999587185369e-04
	8.215226407353372e+00

 68	5.683999587185369e-04
	8.287622492721816e+00

 69	5.783999587185369e-04
	8.356661879668380e+00

 70	5.883999587185369e-04
	8.422208951237755e+00

 71	5.983999587185370e-04
	8.484147589107804e+00

 72	6.083999587185370e-04
	8.542379466531827e+00

 73	6.183999587185370e-04
	8.596822333463265e+00

 74	6.283999587185370e-04
	8.647408277978631e+00

 75	6.383999587185371e-04
	8.694082038518470e+00

 76	6.483999587185371e-04
	8.736799348513101e+00

 77	6.583999587185371e-04
	8.775525375876756e+00

 78	6.683999587185371e-04
	8.810233236890561e+00

 79	6.783999587185372e-04
	8.840902635532098e+00

 80	6.883999587185372e-04
	8.867518606804927e+00

 81	6.983999587185372e-04
	8.890070404898704e+00

 82	7.083999587185372e-04
	8.908550515180071e+00

 83	7.183999587185373e-04
	8.922953821885743e+00

 84	7.283999587185373e-04
	8.933276912223457e+00

 85	7.383999587185373e-04
	8.939517541441459e+00

 86	7.483999587185374e-04
	8.941674242050938e+00

 87	7.583999587185374e-04
	8.939746095440629e+00

 88	7.683999587185374e-04
	8.933732652623211e+00

 89	7.783999587185374e-04
	8.923634016373985e+00

 90	7.883999587185375e-04
	8.909451075386869e+00

 91	7.983999587185375e-04
	8.891185897028491e+00

 92	8.083999587185375e-04
	8.868842272798922e+00

 93	8.183999587185375e-04
	8.842426417273591e+00

 94	8.283999587185376e-04
	8.811947817308276e+00

 95	8.383999587185376e-04
	8.777420225733811e+00

 96	8.483999587185376e-04
	8.738862797934178e+00

 97	8.583999587185376e-04
	8.696301357781500e+00

 98	8.683999587185377e-04
	8.649769791541097e+00

 99	8.783999587185377e-04
	8.599311547240307e+00

 100	8.883999587185377e-04
	8.544981236567672e+00

 101	8.983999587185377e-04
	8.486846306575879e+00

 102	9.083999587185378e-04
	8.424988775366392e+00

 103	9.183999587185378e-04
	8.359506987952358e+00

 104	9.283999587185378e-04
	8.290517382328625e+00

 105	9.383999587185379e-04
	8.218156210815888e+00

 106	9.483999587185379e-04
	8.142581202517606e+00

 107	9.583999587185379e-04
	8.063973101767514e+00

 108	9.683999587185379e-04
	7.982537065107768e+00

 109	9.783999587185380e-04
	7.898503844038316e+00

 110	9.883999587185380e-04
	7.812130735414514e+00

 111	9.983999587185380e-04
	7.723702222897810e+00

 112	1.008399958718538e-03
	7.633530294760176e+00

 113	1.018399958718538e-03
	7.541954363311349e+00

 114	1.028399958718538e-03
	7.449340779463554e+00

 115	1.038399958718538e-03
	7.356081876454186e+00

 116	1.048399958718538e-03
	7.262594549995643e+00

 117	1.058399958718538e-03
	7.169318324195443e+00

 118	1.068399958718538e-03
	7.076712929673795e+00

 119	1.078399958718538e-03
	6.985255364465076e+00

 120	1.088399958718538e-03
	6.895436486624738e+00

 121	1.098399958718538e-03
	6.807757134498970e+00

 122	1.108399958718538e-03
	6.722723847177647e+00

 123	1.118399958718538e-03
	6.640844207476877e+00

 124	1.128399958718538e-03
	6.562621901292543e+00

 125	1.138399958718538e-03
	6.488551540093313e+00

 126	1.148399958718538e-03
	6.419113356254082e+00

 127	1.158399958718538e-03
	6.354767836915864e+00

 128	1.168399958718538e-03
	6.295950413846587e+00

 129	1.178399958718538e-03
	6.243066286329681e+00

 130	1.188399958718539e-03
	6.196485492190651e+00

 131	1.198399958718539e-03
	6.156538306236567e+00

 132	1.208399958718539e-03
	6.123511068666653e+00

 133	1.218399958718539e-03
	6.097642515861826e+00

 134	1.228399958718539e-03
	6.079120693794109e+00

 135	1.238399958718539e-03
	6.068080511827849e+00

 136	1.248399958718539e-03
	6.064601987158427e+00

 137	1.258399958718539e-03
	6.068709216889667e+00

 138	1.268399958718539e-03
	6.080370093126179e+00

 139	1.278399958718539e-03
	6.099496773921741e+00

 140	1.288399958718539e-03
	6.125946888471066e+00

 141	1.298399958718539e-03
	6.159525464956346e+00

 142	1.308399958718539e-03
	6.199987523675532e+00

 143	1.318399958718539e-03
	6.247041301872373e+00

 144	1.328399958718539e-03
	6.300352021649038e+00

 145	1.338399958718539e-03
	6.359546150630119e+00

 146	1.348399958718539e-03
	6.424216042763593e+00

 147	1.358399958718539e-03
	6.493924899390100e+00

 148	1.368399958718539e-03
	6.568211923337909e+00

 149	1.378399958718539e-03
	6.646597605222272e+00

 150	1.388399958718539e-03
	6.728589010197524e+00

 151	1.398399958718539e-03
	6.813685012145647e+00

 152	1.408399958718539e-03
	6.901381349015947e+00

 153	1.418399958718539e-03
	6.991175461802644e+00

 154	1.428399958718539e-03
	7.082571004660668e+00

 155	1.438399958718539e-03
	7.175082010151050e+00

 156	1.448399958718539e-03
	7.268236616691411e+00

 157	1.458399958718539e-03
	7.361580366606371e+00

 158	1.468399958718539e-03
	7.454679004780743e+00

 159	1.478399958718539e-03
	7.547120810392231e+00

 160	1.488399958718539e-03
	7.638518414655061e+00

 161	1.498399958718539e-03
	7.728510158593892e+00

 162	1.508399958718539e-03
	7.816760963811060e+00

 163	1.518399958718539e-03
	7.902962786940364e+00

 164	1.528399958718539e-03
	7.986834646558498e+00

 165	1.538399958718539e-03
	8.068122303661685e+00
