Title: ce01a.cir - 1 transitor circuit
Date: Wed Jan 27 13:54:17  2021
Plotname: AC Analysis
Flags: complex
No. Variables: 2
No. Points: 81
Variables:
	0	frequency	frequency grid=3
	1	outdb	notype
Values:
 0	1.000000000000000e+01,0.000000000000000e+00
	2.201191363422616e+01,0.0

 1	1.122018454301963e+01,0.000000000000000e+00
	2.237322390152705e+01,0.0

 2	1.258925411794167e+01,0.000000000000000e+00
	2.268331063168167e+01,0.0

 3	1.412537544622754e+01,0.000000000000000e+00
	2.294644032102457e+01,0.0

 4	1.584893192461113e+01,0.000000000000000e+00
	2.316744222799946e+01,0.0

 5	1.778279410038922e+01,0.000000000000000e+00
	2.335137415892796e+01,0.0

 6	1.995262314968879e+01,0.000000000000000e+00
	2.350323902495456e+01,0.0

 7	2.238721138568338e+01,0.000000000000000e+00
	2.362777202707046e+01,0.0

 8	2.511886431509578e+01,0.000000000000000e+00
	2.372930160361390e+01,0.0

 9	2.818382931264452e+01,0.000000000000000e+00
	2.381167578920104e+01,0.0

 10	3.162277660168376e+01,0.000000000000000e+00
	2.387823992365828e+01,0.0

 11	3.548133892335751e+01,0.000000000000000e+00
	2.393185050074342e+01,0.0

 12	3.981071705534968e+01,0.000000000000000e+00
	2.397491158717855e+01,0.0

 13	4.466835921509626e+01,0.000000000000000e+00
	2.400942311218228e+01,0.0

 14	5.011872336272717e+01,0.000000000000000e+00
	2.403703337184776e+01,0.0

 15	5.623413251903484e+01,0.000000000000000e+00
	2.405909074966658e+01,0.0

 16	6.309573444801924e+01,0.000000000000000e+00
	2.407669171806139e+01,0.0

 17	7.079457843841369e+01,0.000000000000000e+00
	2.409072365655292e+01,0.0

 18	7.943282347242804e+01,0.000000000000000e+00
	2.410190199442367e+01,0.0

 19	8.912509381337442e+01,0.000000000000000e+00
	2.411080178036237e+01,0.0

 20	9.999999999999984e+01,0.000000000000000e+00
	2.411788410979904e+01,0.0

 21	1.122018454301962e+02,0.000000000000000e+00
	2.412351799350196e+01,0.0

 22	1.258925411794165e+02,0.000000000000000e+00
	2.412799829396794e+01,0.0

 23	1.412537544622752e+02,0.000000000000000e+00
	2.413156033591518e+01,0.0

 24	1.584893192461111e+02,0.000000000000000e+00
	2.413439174409685e+01,0.0

 25	1.778279410038919e+02,0.000000000000000e+00
	2.413664199453162e+01,0.0

 26	1.995262314968876e+02,0.000000000000000e+00
	2.413843009541694e+01,0.0

 27	2.238721138568335e+02,0.000000000000000e+00
	2.413985074789534e+01,0.0

 28	2.511886431509575e+02,0.000000000000000e+00
	2.414097927737086e+01,0.0

 29	2.818382931264447e+02,0.000000000000000e+00
	2.414187557406077e+01,0.0

 30	3.162277660168372e+02,0.000000000000000e+00
	2.414258723765210e+01,0.0

 31	3.548133892335746e+02,0.000000000000000e+00
	2.414315208389860e+01,0.0

 32	3.981071705534962e+02,0.000000000000000e+00
	2.414360014057049e+01,0.0

 33	4.466835921509619e+02,0.000000000000000e+00
	2.414395523528032e+01,0.0

 34	5.011872336272709e+02,0.000000000000000e+00
	2.414423625725735e+01,0.0

 35	5.623413251903476e+02,0.000000000000000e+00
	2.414445815879568e+01,0.0

 36	6.309573444801915e+02,0.000000000000000e+00
	2.414463274865096e+01,0.0

 37	7.079457843841359e+02,0.000000000000000e+00
	2.414476931913920e+01,0.0

 38	7.943282347242791e+02,0.000000000000000e+00
	2.414487513982910e+01,0.0

 39	8.912509381337428e+02,0.000000000000000e+00
	2.414495584399123e+01,0.0

 40	9.999999999999968e+02,0.000000000000000e+00
	2.414501572809981e+01,0.0

 41	1.122018454301960e+03,0.000000000000000e+00
	2.414505798039832e+01,0.0

 42	1.258925411794163e+03,0.000000000000000e+00
	2.414508485048157e+01,0.0

 43	1.412537544622749e+03,0.000000000000000e+00
	2.414509776900396e+01,0.0

 44	1.584893192461108e+03,0.000000000000000e+00
	2.414509742379675e+01,0.0

 45	1.778279410038916e+03,0.000000000000000e+00
	2.414508379646676e+01,0.0

 46	1.995262314968872e+03,0.000000000000000e+00
	2.414505616144146e+01,0.0

 47	2.238721138568331e+03,0.000000000000000e+00
	2.414501304731956e+01,0.0

 48	2.511886431509571e+03,0.000000000000000e+00
	2.414495215860414e+01,0.0

 49	2.818382931264443e+03,0.000000000000000e+00
	2.414487025355377e+01,0.0

 50	3.162277660168367e+03,0.000000000000000e+00
	2.414476297169544e+01,0.0

 51	3.548133892335740e+03,0.000000000000000e+00
	2.414462460193763e+01,0.0

 52	3.981071705534956e+03,0.000000000000000e+00
	2.414444777883158e+01,0.0

 53	4.466835921509612e+03,0.000000000000000e+00
	2.414422309106380e+01,0.0

 54	5.011872336272701e+03,0.000000000000000e+00
	2.414393858136695e+01,0.0

 55	5.623413251903467e+03,0.000000000000000e+00
	2.414357911151913e+01,0.0

 56	6.309573444801905e+03,0.000000000000000e+00
	2.414312555899026e+01,0.0

 57	7.079457843841347e+03,0.000000000000000e+00
	2.414255380298879e+01,0.0

 58	7.943282347242779e+03,0.000000000000000e+00
	2.414183344698461e+01,0.0

 59	8.912509381337413e+03,0.000000000000000e+00
	2.414092621108684e+01,0.0

 60	9.999999999999953e+03,0.000000000000000e+00
	2.413978391107709e+01,0.0

 61	1.122018454301958e+04,0.000000000000000e+00
	2.413834592028002e+01,0.0

 62	1.258925411794161e+04,0.000000000000000e+00
	2.413653598501296e+01,0.0

 63	1.412537544622747e+04,0.000000000000000e+00
	2.413425823354146e+01,0.0

 64	1.584893192461106e+04,0.000000000000000e+00
	2.413139218076213e+01,0.0

 65	1.778279410038914e+04,0.000000000000000e+00
	2.412778648612810e+01,0.0

 66	1.995262314968869e+04,0.000000000000000e+00
	2.412325116926467e+01,0.0

 67	2.238721138568328e+04,0.000000000000000e+00
	2.411754792680130e+01,0.0

 68	2.511886431509566e+04,0.000000000000000e+00
	2.411037812560077e+01,0.0

 69	2.818382931264438e+04,0.000000000000000e+00
	2.410136797537401e+01,0.0

 70	3.162277660168361e+04,0.000000000000000e+00
	2.409005031255018e+01,0.0

 71	3.548133892335734e+04,0.000000000000000e+00
	2.407584236936788e+01,0.0

 72	3.981071705534949e+04,0.000000000000000e+00
	2.405801887468239e+01,0.0

 73	4.466835921509604e+04,0.000000000000000e+00
	2.403567986667919e+01,0.0

 74	5.011872336272692e+04,0.000000000000000e+00
	2.400771273703388e+01,0.0

 75	5.623413251903455e+04,0.000000000000000e+00
	2.397274833673705e+01,0.0

 76	6.309573444801892e+04,0.000000000000000e+00
	2.392911154423033e+01,0.0

 77	7.079457843841333e+04,0.000000000000000e+00
	2.387476763778223e+01,0.0

 78	7.943282347242763e+04,0.000000000000000e+00
	2.380726724584461e+01,0.0

 79	8.912509381337395e+04,0.000000000000000e+00
	2.372369466683226e+01,0.0

 80	9.999999999999932e+04,0.000000000000000e+00
	2.362062695843759e+01,0.0

Title: ce01a.cir - 1 transitor circuit
Date: Wed Jan 27 13:54:17  2021
Plotname: AC Analysis
Flags: complex
No. Variables: 2
No. Points: 81
Variables:
	0	frequency	frequency grid=3
	1	outdb	notype
Values:
 0	1.000000000000000e+01,0.000000000000000e+00
	2.351539389226305e+01,0.0

 1	1.122018454301963e+01,0.000000000000000e+00
	2.387647185643381e+01,0.0

 2	1.258925411794167e+01,0.000000000000000e+00
	2.418634321955254e+01,0.0

 3	1.412537544622754e+01,0.000000000000000e+00
	2.444927770634867e+01,0.0

 4	1.584893192461113e+01,0.000000000000000e+00
	2.467010627916848e+01,0.0

 5	1.778279410038922e+01,0.000000000000000e+00
	2.485388707531587e+01,0.0

 6	1.995262314968879e+01,0.000000000000000e+00
	2.500562224353622e+01,0.0

 7	2.238721138568338e+01,0.000000000000000e+00
	2.513004545566195e+01,0.0

 8	2.511886431509578e+01,0.000000000000000e+00
	2.523148316485439e+01,0.0

 9	2.818382931264452e+01,0.000000000000000e+00
	2.531378122222195e+01,0.0

 10	3.162277660168376e+01,0.000000000000000e+00
	2.538028277664842e+01,0.0

 11	3.548133892335751e+01,0.000000000000000e+00
	2.543384225009170e+01,0.0

 12	3.981071705534968e+01,0.000000000000000e+00
	2.547686182958802e+01,0.0

 13	4.466835921509626e+01,0.000000000000000e+00
	2.551133978980945e+01,0.0

 14	5.011872336272717e+01,0.000000000000000e+00
	2.553892300319181e+01,0.0

 15	5.623413251903484e+01,0.000000000000000e+00
	2.556095864925711e+01,0.0

 16	6.309573444801924e+01,0.000000000000000e+00
	2.557854219579112e+01,0.0

 17	7.079457843841369e+01,0.000000000000000e+00
	2.559256019267186e+01,0.0

 18	7.943282347242804e+01,0.000000000000000e+00
	2.560372738960539e+01,0.0

 19	8.912509381337442e+01,0.000000000000000e+00
	2.561261828210643e+01,0.0

 20	9.999999999999984e+01,0.000000000000000e+00
	2.561969351756945e+01,0.0

 21	1.122018454301962e+02,0.000000000000000e+00
	2.562532174523174e+01,0.0

 22	1.258925411794165e+02,0.000000000000000e+00
	2.562979753669584e+01,0.0

 23	1.412537544622752e+02,0.000000000000000e+00
	2.563335598310368e+01,0.0

 24	1.584893192461111e+02,0.000000000000000e+00
	2.563618452188026e+01,0.0

 25	1.778279410038919e+02,0.000000000000000e+00
	2.563843247885649e+01,0.0

 26	1.995262314968876e+02,0.000000000000000e+00
	2.564021874174597e+01,0.0

 27	2.238721138568335e+02,0.000000000000000e+00
	2.564163791486934e+01,0.0

 28	2.511886431509575e+02,0.000000000000000e+00
	2.564276524550147e+01,0.0

 29	2.818382931264447e+02,0.000000000000000e+00
	2.564366056044111e+01,0.0

 30	3.162277660168372e+02,0.000000000000000e+00
	2.564437140736477e+01,0.0

 31	3.548133892335746e+02,0.000000000000000e+00
	2.564493555869093e+01,0.0

 32	3.981071705534962e+02,0.000000000000000e+00
	2.564538300529065e+01,0.0

 33	4.466835921509619e+02,0.000000000000000e+00
	2.564573754235235e+01,0.0

 34	5.011872336272709e+02,0.000000000000000e+00
	2.564601802946333e+01,0.0

 35	5.623413251903476e+02,0.000000000000000e+00
	2.564623939044688e+01,0.0

 36	6.309573444801915e+02,0.000000000000000e+00
	2.564641340530248e+01,0.0

 37	7.079457843841359e+02,0.000000000000000e+00
	2.564654933571916e+01,0.0

 38	7.943282347242791e+02,0.000000000000000e+00
	2.564665441720672e+01,0.0

 39	8.912509381337428e+02,0.000000000000000e+00
	2.564673424365661e+01,0.0

 40	9.999999999999968e+02,0.000000000000000e+00
	2.564679306481683e+01,0.0

 41	1.122018454301960e+03,0.000000000000000e+00
	2.564683401233077e+01,0.0

 42	1.258925411794163e+03,0.000000000000000e+00
	2.564685926631345e+01,0.0

 43	1.412537544622749e+03,0.000000000000000e+00
	2.564687017136261e+01,0.0

 44	1.584893192461108e+03,0.000000000000000e+00
	2.564686730810615e+01,0.0

 45	1.778279410038916e+03,0.000000000000000e+00
	2.564685052407775e+01,0.0

 46	1.995262314968872e+03,0.000000000000000e+00
	2.564681892563033e+01,0.0

 47	2.238721138568331e+03,0.000000000000000e+00
	2.564677083036280e+01,0.0

 48	2.511886431509571e+03,0.000000000000000e+00
	2.564670367759506e+01,0.0

 49	2.818382931264443e+03,0.000000000000000e+00
	2.564661389214555e+01,0.0

 50	3.162277660168367e+03,0.000000000000000e+00
	2.564649669411978e+01,0.0

 51	3.548133892335740e+03,0.000000000000000e+00
	2.564634584470640e+01,0.0

 52	3.981071705534956e+03,0.000000000000000e+00
	2.564615331444310e+01,0.0

 53	4.466835921509612e+03,0.000000000000000e+00
	2.564590885646971e+01,0.0

 54	5.011872336272701e+03,0.000000000000000e+00
	2.564559946211212e+01,0.0

 55	5.623413251903467e+03,0.000000000000000e+00
	2.564520867024147e+01,0.0

 56	6.309573444801905e+03,0.000000000000000e+00
	2.564471569391365e+01,0.0

 57	7.079457843841347e+03,0.000000000000000e+00
	2.564409431861284e+01,0.0

 58	7.943282347242779e+03,0.000000000000000e+00
	2.564331151445850e+01,0.0

 59	8.912509381337413e+03,0.000000000000000e+00
	2.564232569033527e+01,0.0

 60	9.999999999999953e+03,0.000000000000000e+00
	2.564108449965079e+01,0.0

 61	1.122018454301958e+04,0.000000000000000e+00
	2.563952208544929e+01,0.0

 62	1.258925411794161e+04,0.000000000000000e+00
	2.563755562505321e+01,0.0

 63	1.412537544622747e+04,0.000000000000000e+00
	2.563508100138453e+01,0.0

 64	1.584893192461106e+04,0.000000000000000e+00
	2.563196738784260e+01,0.0

 65	1.778279410038914e+04,0.000000000000000e+00
	2.562805048592173e+01,0.0

 66	1.995262314968869e+04,0.000000000000000e+00
	2.562312409868877e+01,0.0

 67	2.238721138568328e+04,0.000000000000000e+00
	2.561692965942049e+01,0.0

 68	2.511886431509566e+04,0.000000000000000e+00
	2.560914326420409e+01,0.0

 69	2.818382931264438e+04,0.000000000000000e+00
	2.559935968431738e+01,0.0

 70	3.162277660168361e+04,0.000000000000000e+00
	2.558707276587250e+01,0.0

 71	3.548133892335734e+04,0.000000000000000e+00
	2.557165157374133e+01,0.0

 72	3.981071705534949e+04,0.000000000000000e+00
	2.555231162635450e+01,0.0

 73	4.466835921509604e+04,0.000000000000000e+00
	2.552808063188291e+01,0.0

 74	5.011872336272692e+04,0.000000000000000e+00
	2.549775832641284e+01,0.0

 75	5.623413251903455e+04,0.000000000000000e+00
	2.545987040432050e+01,0.0

 76	6.309573444801892e+04,0.000000000000000e+00
	2.541261721705967e+01,0.0

 77	7.079457843841333e+04,0.000000000000000e+00
	2.535381901529269e+01,0.0

 78	7.943282347242763e+04,0.000000000000000e+00
	2.528086113719675e+01,0.0

 79	8.912509381337395e+04,0.000000000000000e+00
	2.519064477614744e+01,0.0

 80	9.999999999999932e+04,0.000000000000000e+00
	2.507955174173367e+01,0.0

Title: ce01a.cir - 1 transitor circuit
Date: Wed Jan 27 13:54:17  2021
Plotname: AC Analysis
Flags: complex
No. Variables: 2
No. Points: 81
Variables:
	0	frequency	frequency grid=3
	1	outdb	notype
Values:
 0	1.000000000000000e+01,0.000000000000000e+00
	2.475958021775202e+01,0.0

 1	1.122018454301963e+01,0.000000000000000e+00
	2.512033813536558e+01,0.0

 2	1.258925411794167e+01,0.000000000000000e+00
	2.542991282271488e+01,0.0

 3	1.412537544622754e+01,0.000000000000000e+00
	2.569257844220000e+01,0.0

 4	1.584893192461113e+01,0.000000000000000e+00
	2.591316829340603e+01,0.0

 5	1.778279410038922e+01,0.000000000000000e+00
	2.609674096056260e+01,0.0

 6	1.995262314968879e+01,0.000000000000000e+00
	2.624829753482920e+01,0.0

 7	2.238721138568338e+01,0.000000000000000e+00
	2.637256957616670e+01,0.0

 8	2.511886431509578e+01,0.000000000000000e+00
	2.647388079951259e+01,0.0

 9	2.818382931264452e+01,0.000000000000000e+00
	2.655607404606614e+01,0.0

 10	3.162277660168376e+01,0.000000000000000e+00
	2.662248944571781e+01,0.0

 11	3.548133892335751e+01,0.000000000000000e+00
	2.667597856632224e+01,0.0

 12	3.981071705534968e+01,0.000000000000000e+00
	2.671894100597177e+01,0.0

 13	4.466835921509626e+01,0.000000000000000e+00
	2.675337276080106e+01,0.0

 14	5.011872336272717e+01,0.000000000000000e+00
	2.678091874284854e+01,0.0

 15	5.623413251903484e+01,0.000000000000000e+00
	2.680292447391201e+01,0.0

 16	6.309573444801924e+01,0.000000000000000e+00
	2.682048403860496e+01,0.0

 17	7.079457843841369e+01,0.000000000000000e+00
	2.683448284461432e+01,0.0

 18	7.943282347242804e+01,0.000000000000000e+00
	2.684563470608884e+01,0.0

 19	8.912509381337442e+01,0.000000000000000e+00
	2.685451335705473e+01,0.0

 20	9.999999999999984e+01,0.000000000000000e+00
	2.686157882813450e+01,0.0

 21	1.122018454301962e+02,0.000000000000000e+00
	2.686719927093436e+01,0.0

 22	1.258925411794165e+02,0.000000000000000e+00
	2.687166885666294e+01,0.0

 23	1.412537544622752e+02,0.000000000000000e+00
	2.687522235497369e+01,0.0

 24	1.584893192461111e+02,0.000000000000000e+00
	2.687804694547861e+01,0.0

 25	1.778279410038919e+02,0.000000000000000e+00
	2.688029174736287e+01,0.0

 26	1.995262314968876e+02,0.000000000000000e+00
	2.688207548258761e+01,0.0

 27	2.238721138568335e+02,0.000000000000000e+00
	2.688349262231757e+01,0.0

 28	2.511886431509575e+02,0.000000000000000e+00
	2.688461830644970e+01,0.0

 29	2.818382931264447e+02,0.000000000000000e+00
	2.688551227467483e+01,0.0

 30	3.162277660168372e+02,0.000000000000000e+00
	2.688622200330976e+01,0.0

 31	3.548133892335746e+02,0.000000000000000e+00
	2.688678520546066e+01,0.0

 32	3.981071705534962e+02,0.000000000000000e+00
	2.688723182159194e+01,0.0

 33	4.466835921509619e+02,0.000000000000000e+00
	2.688758560275637e+01,0.0

 34	5.011872336272709e+02,0.000000000000000e+00
	2.688786536833706e+01,0.0

 35	5.623413251903476e+02,0.000000000000000e+00
	2.688808600378469e+01,0.0

 36	6.309573444801915e+02,0.000000000000000e+00
	2.688825925047585e+01,0.0

 37	7.079457843841359e+02,0.000000000000000e+00
	2.688839432921386e+01,0.0

 38	7.943282347242791e+02,0.000000000000000e+00
	2.688849843015495e+01,0.0

 39	8.912509381337428e+02,0.000000000000000e+00
	2.688857709498476e+01,0.0

 40	9.999999999999968e+02,0.000000000000000e+00
	2.688863451160905e+01,0.0

 41	1.122018454301960e+03,0.000000000000000e+00
	2.688867373686261e+01,0.0

 42	1.258925411794163e+03,0.000000000000000e+00
	2.688869685916901e+01,0.0

 43	1.412537544622749e+03,0.000000000000000e+00
	2.688870510961297e+01,0.0

 44	1.584893192461108e+03,0.000000000000000e+00
	2.688869892747153e+01,0.0

 45	1.778279410038916e+03,0.000000000000000e+00
	2.688867798358670e+01,0.0

 46	1.995262314968872e+03,0.000000000000000e+00
	2.688864116281994e+01,0.0

 47	2.238721138568331e+03,0.000000000000000e+00
	2.688858650475301e+01,0.0

 48	2.511886431509571e+03,0.000000000000000e+00
	2.688851109934750e+01,0.0

 49	2.818382931264443e+03,0.000000000000000e+00
	2.688841093214729e+01,0.0

 50	3.162277660168367e+03,0.000000000000000e+00
	2.688828067072789e+01,0.0

 51	3.548133892335740e+03,0.000000000000000e+00
	2.688811338112836e+01,0.0

 52	3.981071705534956e+03,0.000000000000000e+00
	2.688790015923382e+01,0.0

 53	4.466835921509612e+03,0.000000000000000e+00
	2.688762965759894e+01,0.0

 54	5.011872336272701e+03,0.000000000000000e+00
	2.688728748273825e+01,0.0

 55	5.623413251903467e+03,0.000000000000000e+00
	2.688685543117285e+01,0.0

 56	6.309573444801905e+03,0.000000000000000e+00
	2.688631052401787e+01,0.0

 57	7.079457843841347e+03,0.000000000000000e+00
	2.688562378961717e+01,0.0

 58	7.943282347242779e+03,0.000000000000000e+00
	2.688475873074350e+01,0.0

 59	8.912509381337413e+03,0.000000000000000e+00
	2.688366939691117e+01,0.0

 60	9.999999999999953e+03,0.000000000000000e+00
	2.688229796251463e+01,0.0

 61	1.122018454301958e+04,0.000000000000000e+00
	2.688057168728960e+01,0.0

 62	1.258925411794161e+04,0.000000000000000e+00
	2.687839910568431e+01,0.0

 63	1.412537544622747e+04,0.000000000000000e+00
	2.687566525574293e+01,0.0

 64	1.584893192461106e+04,0.000000000000000e+00
	2.687222571460465e+01,0.0

 65	1.778279410038914e+04,0.000000000000000e+00
	2.686789915646177e+01,0.0

 66	1.995262314968869e+04,0.000000000000000e+00
	2.686245808917996e+01,0.0

 67	2.238721138568328e+04,0.000000000000000e+00
	2.685561735882612e+01,0.0

 68	2.511886431509566e+04,0.000000000000000e+00
	2.684701993890000e+01,0.0

 69	2.818382931264438e+04,0.000000000000000e+00
	2.683621944884716e+01,0.0

 70	3.162277660168361e+04,0.000000000000000e+00
	2.682265878343007e+01,0.0

 71	3.548133892335734e+04,0.000000000000000e+00
	2.680564419787531e+01,0.0

 72	3.981071705534949e+04,0.000000000000000e+00
	2.678431420960846e+01,0.0

 73	4.466835921509604e+04,0.000000000000000e+00
	2.675760278785915e+01,0.0

 74	5.011872336272692e+04,0.000000000000000e+00
	2.672419656732810e+01,0.0

 75	5.623413251903455e+04,0.000000000000000e+00
	2.668248632537886e+01,0.0

 76	6.309573444801892e+04,0.000000000000000e+00
	2.663051380996099e+01,0.0

 77	7.079457843841333e+04,0.000000000000000e+00
	2.656591631775853e+01,0.0

 78	7.943282347242763e+04,0.000000000000000e+00
	2.648587330376533e+01,0.0

 79	8.912509381337395e+04,0.000000000000000e+00
	2.638706178713839e+01,0.0

 80	9.999999999999932e+04,0.000000000000000e+00
	2.626563026115251e+01,0.0

