Title: Constant values
Date: Oct  6 2019   15:17:58
Plotname: constants
Flags: real
No. Variables: 2
No. Points: 1
Variables:
	0	yes	notype
	1	ymax	notype
Values:
 0	1.000000000000000e+00
	5.739748000000001e-02

Title: Constant values
Date: Oct  6 2019   15:17:58
Plotname: constants
Flags: real
No. Variables: 2
No. Points: 1
Variables:
	0	yes	notype
	1	ymax	notype
Values:
 0	1.000000000000000e+00
	1.147602000000000e-01

Title: Constant values
Date: Oct  6 2019   15:17:58
Plotname: constants
Flags: real
No. Variables: 2
No. Points: 1
Variables:
	0	yes	notype
	1	ymax	notype
Values:
 0	1.000000000000000e+00
	2.292756000000000e-01

Title: Constant values
Date: Oct  6 2019   15:17:58
Plotname: constants
Flags: real
No. Variables: 2
No. Points: 1
Variables:
	0	yes	notype
	1	ymax	notype
Values:
 0	1.000000000000000e+00
	5.691172000000000e-01

Title: Constant values
Date: Oct  6 2019   15:17:58
Plotname: constants
Flags: real
No. Variables: 2
No. Points: 1
Variables:
	0	yes	notype
	1	ymax	notype
Values:
 0	1.000000000000000e+00
	1.108763000000000e+00

Title: Constant values
Date: Oct  6 2019   15:17:58
Plotname: constants
Flags: real
No. Variables: 2
No. Points: 1
Variables:
	0	yes	notype
	1	ymax	notype
Values:
 0	1.000000000000000e+00
	1.406528000000000e+00

