Title: Constant values
Date: Oct  6 2019   15:17:58
Plotname: constants
Flags: real
No. Variables: 2
No. Points: 1
Variables:
	0	yes	notype
	1	ymax	notype
Values:
 0	1.000000000000000e+00
	4.905603000000001e-02

Title: Constant values
Date: Oct  6 2019   15:17:58
Plotname: constants
Flags: real
No. Variables: 2
No. Points: 1
Variables:
	0	yes	notype
	1	ymax	notype
Values:
 0	1.000000000000000e+00
	9.804578000000000e-02

Title: Constant values
Date: Oct  6 2019   15:17:58
Plotname: constants
Flags: real
No. Variables: 2
No. Points: 1
Variables:
	0	yes	notype
	1	ymax	notype
Values:
 0	1.000000000000000e+00
	2.449277000000000e-01

Title: Constant values
Date: Oct  6 2019   15:17:58
Plotname: constants
Flags: real
No. Variables: 2
No. Points: 1
Variables:
	0	yes	notype
	1	ymax	notype
Values:
 0	1.000000000000000e+00
	4.912434999999999e-01

Title: Constant values
Date: Oct  6 2019   15:17:58
Plotname: constants
Flags: real
No. Variables: 2
No. Points: 1
Variables:
	0	yes	notype
	1	ymax	notype
Values:
 0	1.000000000000000e+00
	1.002437000000000e+00

