Title: stage2a_with_boost.cir - common emitter+common collector
Date: Wed Jan 27 14:31:24  2021
Plotname: AC Analysis
Flags: complex
No. Variables: 2
No. Points: 121
Variables:
	0	frequency	frequency grid=3
	1	outdb	notype
Values:
 0	1.000000000000000e+01,0.000000000000000e+00
	2.410637069941092e+01,0.0

 1	1.122018454301963e+01,0.000000000000000e+00
	2.442086850364083e+01,0.0

 2	1.258925411794167e+01,0.000000000000000e+00
	2.468794501542774e+01,0.0

 3	1.412537544622754e+01,0.000000000000000e+00
	2.491241792924782e+01,0.0

 4	1.584893192461113e+01,0.000000000000000e+00
	2.509935442163854e+01,0.0

 5	1.778279410038922e+01,0.000000000000000e+00
	2.525378352991695e+01,0.0

 6	1.995262314968879e+01,0.000000000000000e+00
	2.538047808799729e+01,0.0

 7	2.238721138568338e+01,0.000000000000000e+00
	2.548381054376893e+01,0.0

 8	2.511886431509578e+01,0.000000000000000e+00
	2.556767502485335e+01,0.0

 9	2.818382931264452e+01,0.000000000000000e+00
	2.563546187616394e+01,0.0

 10	3.162277660168376e+01,0.000000000000000e+00
	2.569006944166630e+01,0.0

 11	3.548133892335751e+01,0.000000000000000e+00
	2.573393934165662e+01,0.0

 12	3.981071705534968e+01,0.000000000000000e+00
	2.576910431212972e+01,0.0

 13	4.466835921509626e+01,0.000000000000000e+00
	2.579724072719706e+01,0.0

 14	5.011872336272717e+01,0.000000000000000e+00
	2.581972062264375e+01,0.0

 15	5.623413251903484e+01,0.000000000000000e+00
	2.583766014994591e+01,0.0

 16	6.309573444801924e+01,0.000000000000000e+00
	2.585196290390420e+01,0.0

 17	7.079457843841369e+01,0.000000000000000e+00
	2.586335757366333e+01,0.0

 18	7.943282347242804e+01,0.000000000000000e+00
	2.587242998629106e+01,0.0

 19	8.912509381337442e+01,0.000000000000000e+00
	2.587964995750126e+01,0.0

 20	9.999999999999984e+01,0.000000000000000e+00
	2.588539352745030e+01,0.0

 21	1.122018454301962e+02,0.000000000000000e+00
	2.588996120903713e+01,0.0

 22	1.258925411794165e+02,0.000000000000000e+00
	2.589359285938238e+01,0.0

 23	1.412537544622752e+02,0.000000000000000e+00
	2.589647973353698e+01,0.0

 24	1.584893192461111e+02,0.000000000000000e+00
	2.589877421279711e+01,0.0

 25	1.778279410038919e+02,0.000000000000000e+00
	2.590059763002959e+01,0.0

 26	1.995262314968876e+02,0.000000000000000e+00
	2.590204654772418e+01,0.0

 27	2.238721138568335e+02,0.000000000000000e+00
	2.590319778425025e+01,0.0

 28	2.511886431509575e+02,0.000000000000000e+00
	2.590411243132482e+01,0.0

 29	2.818382931264447e+02,0.000000000000000e+00
	2.590483906097521e+01,0.0

 30	3.162277660168372e+02,0.000000000000000e+00
	2.590541628285818e+01,0.0

 31	3.548133892335746e+02,0.000000000000000e+00
	2.590587478184435e+01,0.0

 32	3.981071705534962e+02,0.000000000000000e+00
	2.590623894040592e+01,0.0

 33	4.466835921509619e+02,0.000000000000000e+00
	2.590652812968533e+01,0.0

 34	5.011872336272709e+02,0.000000000000000e+00
	2.590675773641518e+01,0.0

 35	5.623413251903476e+02,0.000000000000000e+00
	2.590693997937847e+01,0.0

 36	6.309573444801915e+02,0.000000000000000e+00
	2.590708455824098e+01,0.0

 37	7.079457843841359e+02,0.000000000000000e+00
	2.590719916892441e+01,0.0

 38	7.943282347242791e+02,0.000000000000000e+00
	2.590728991270147e+01,0.0

 39	8.912509381337428e+02,0.000000000000000e+00
	2.590736162064334e+01,0.0

 40	9.999999999999968e+02,0.000000000000000e+00
	2.590741811059798e+01,0.0

 41	1.122018454301960e+03,0.000000000000000e+00
	2.590746239031818e+01,0.0

 42	1.258925411794163e+03,0.000000000000000e+00
	2.590749681751721e+01,0.0

 43	1.412537544622749e+03,0.000000000000000e+00
	2.590752322535355e+01,0.0

 44	1.584893192461108e+03,0.000000000000000e+00
	2.590754302000530e+01,0.0

 45	1.778279410038916e+03,0.000000000000000e+00
	2.590755725552505e+01,0.0

 46	1.995262314968872e+03,0.000000000000000e+00
	2.590756668995432e+01,0.0

 47	2.238721138568331e+03,0.000000000000000e+00
	2.590757182568111e+01,0.0

 48	2.511886431509571e+03,0.000000000000000e+00
	2.590757293618602e+01,0.0

 49	2.818382931264443e+03,0.000000000000000e+00
	2.590757008060510e+01,0.0

 50	3.162277660168367e+03,0.000000000000000e+00
	2.590756310687551e+01,0.0

 51	3.548133892335740e+03,0.000000000000000e+00
	2.590755164364163e+01,0.0

 52	3.981071705534956e+03,0.000000000000000e+00
	2.590753508048278e+01,0.0

 53	4.466835921509612e+03,0.000000000000000e+00
	2.590751253541451e+01,0.0

 54	5.011872336272701e+03,0.000000000000000e+00
	2.590748280793260e+01,0.0

 55	5.623413251903467e+03,0.000000000000000e+00
	2.590744431510506e+01,0.0

 56	6.309573444801905e+03,0.000000000000000e+00
	2.590739500731097e+01,0.0

 57	7.079457843841347e+03,0.000000000000000e+00
	2.590733225914682e+01,0.0

 58	7.943282347242779e+03,0.000000000000000e+00
	2.590725272970337e+01,0.0

 59	8.912509381337413e+03,0.000000000000000e+00
	2.590715218479382e+01,0.0

 60	9.999999999999953e+03,0.000000000000000e+00
	2.590702527169311e+01,0.0

 61	1.122018454301958e+04,0.000000000000000e+00
	2.590686523444283e+01,0.0

 62	1.258925411794161e+04,0.000000000000000e+00
	2.590666355463906e+01,0.0

 63	1.412537544622747e+04,0.000000000000000e+00
	2.590640949869474e+01,0.0

 64	1.584893192461106e+04,0.000000000000000e+00
	2.590608954766027e+01,0.0

 65	1.778279410038914e+04,0.000000000000000e+00
	2.590568667954338e+01,0.0

 66	1.995262314968869e+04,0.000000000000000e+00
	2.590517946640056e+01,0.0

 67	2.238721138568328e+04,0.000000000000000e+00
	2.590454093887750e+01,0.0

 68	2.511886431509566e+04,0.000000000000000e+00
	2.590373715895491e+01,0.0

 69	2.818382931264438e+04,0.000000000000000e+00
	2.590272542681873e+01,0.0

 70	3.162277660168361e+04,0.000000000000000e+00
	2.590145202940718e+01,0.0

 71	3.548133892335734e+04,0.000000000000000e+00
	2.589984941556328e+01,0.0

 72	3.981071705534949e+04,0.000000000000000e+00
	2.589783265496023e+01,0.0

 73	4.466835921509604e+04,0.000000000000000e+00
	2.589529500426088e+01,0.0

 74	5.011872336272692e+04,0.000000000000000e+00
	2.589210236333885e+01,0.0

 75	5.623413251903455e+04,0.000000000000000e+00
	2.588808635621513e+01,0.0

 76	6.309573444801892e+04,0.000000000000000e+00
	2.588303571522244e+01,0.0

 77	7.079457843841333e+04,0.000000000000000e+00
	2.587668558332489e+01,0.0

 78	7.943282347242763e+04,0.000000000000000e+00
	2.586870428039462e+01,0.0

 79	8.912509381337395e+04,0.000000000000000e+00
	2.585867700896984e+01,0.0

 80	9.999999999999932e+04,0.000000000000000e+00
	2.584608591206408e+01,0.0

 81	1.122018454301956e+05,0.000000000000000e+00
	2.583028585462848e+01,0.0

 82	1.258925411794158e+05,0.000000000000000e+00
	2.581047530549148e+01,0.0

 83	1.412537544622744e+05,0.000000000000000e+00
	2.578566178551034e+01,0.0

 84	1.584893192461102e+05,0.000000000000000e+00
	2.575462157597122e+01,0.0

 85	1.778279410038910e+05,0.000000000000000e+00
	2.571585382688612e+01,0.0

 86	1.995262314968865e+05,0.000000000000000e+00
	2.566752996929915e+01,0.0

 87	2.238721138568323e+05,0.000000000000000e+00
	2.560744053772272e+01,0.0

 88	2.511886431509561e+05,0.000000000000000e+00
	2.553294326183396e+01,0.0

 89	2.818382931264432e+05,0.000000000000000e+00
	2.544091864886484e+01,0.0

 90	3.162277660168355e+05,0.000000000000000e+00
	2.532774216318186e+01,0.0

 91	3.548133892335726e+05,0.000000000000000e+00
	2.518928515278607e+01,0.0

 92	3.981071705534941e+05,0.000000000000000e+00
	2.502095907807343e+01,0.0

 93	4.466835921509595e+05,0.000000000000000e+00
	2.481781804502404e+01,0.0

 94	5.011872336272682e+05,0.000000000000000e+00
	2.457473140222507e+01,0.0

 95	5.623413251903445e+05,0.000000000000000e+00
	2.428662960684412e+01,0.0

 96	6.309573444801880e+05,0.000000000000000e+00
	2.394881219843552e+01,0.0

 97	7.079457843841319e+05,0.000000000000000e+00
	2.355728840890201e+01,0.0

 98	7.943282347242747e+05,0.000000000000000e+00
	2.310910361103575e+01,0.0

 99	8.912509381337379e+05,0.000000000000000e+00
	2.260259552507602e+01,0.0

 100	9.999999999999914e+05,0.000000000000000e+00
	2.203752904508654e+01,0.0

 101	1.122018454301954e+06,0.000000000000000e+00
	2.141507913491450e+01,0.0

 102	1.258925411794156e+06,0.000000000000000e+00
	2.073766203185757e+01,0.0

 103	1.412537544622742e+06,0.000000000000000e+00
	2.000864552686637e+01,0.0

 104	1.584893192461099e+06,0.000000000000000e+00
	1.923198904519468e+01,0.0

 105	1.778279410038907e+06,0.000000000000000e+00
	1.841186852421471e+01,0.0

 106	1.995262314968862e+06,0.000000000000000e+00
	1.755233142459256e+01,0.0

 107	2.238721138568319e+06,0.000000000000000e+00
	1.665700999234864e+01,0.0

 108	2.511886431509557e+06,0.000000000000000e+00
	1.572890319921460e+01,0.0

 109	2.818382931264428e+06,0.000000000000000e+00
	1.477022452714563e+01,0.0

 110	3.162277660168350e+06,0.000000000000000e+00
	1.378230578046067e+01,0.0

 111	3.548133892335722e+06,0.000000000000000e+00
	1.276554593336419e+01,0.0

 112	3.981071705534935e+06,0.000000000000000e+00
	1.171939706409250e+01,0.0

 113	4.466835921509589e+06,0.000000000000000e+00
	1.064238484008720e+01,0.0

 114	5.011872336272676e+06,0.000000000000000e+00
	9.532167121142631e+00,0.0

 115	5.623413251903437e+06,0.000000000000000e+00
	8.385639385093574e+00,0.0

 116	6.309573444801872e+06,0.000000000000000e+00
	7.199098144065763e+00,0.0

 117	7.079457843841311e+06,0.000000000000000e+00
	5.968471479523270e+00,0.0

 118	7.943282347242737e+06,0.000000000000000e+00
	4.689617755034402e+00,0.0

 119	8.912509381337367e+06,0.000000000000000e+00
	3.358679383497469e+00,0.0

 120	9.999999999999899e+06,0.000000000000000e+00
	1.972460478173228e+00,0.0

