Title: ce02_nfb.cir - 1 transitor circuit
Date: Sun Sep 13 15:26:56  2020
Plotname: AC Analysis
Flags: complex
No. Variables: 2
No. Points: 81
Variables:
	0	frequency	frequency grid=3
	1	outdb	notype
Values:
 0	1.000000000000000e+01,0.000000000000000e+00
	6.571972788248962e+00,0.0

 1	1.122018454301963e+01,0.000000000000000e+00
	6.679955828553428e+00,0.0

 2	1.258925411794167e+01,0.000000000000000e+00
	6.767681546112032e+00,0.0

 3	1.412537544622754e+01,0.000000000000000e+00
	6.838647469349097e+00,0.0

 4	1.584893192461113e+01,0.000000000000000e+00
	6.895854431139080e+00,0.0

 5	1.778279410038922e+01,0.000000000000000e+00
	6.941837768173835e+00,0.0

 6	1.995262314968879e+01,0.000000000000000e+00
	6.978713182947883e+00,0.0

 7	2.238721138568338e+01,0.000000000000000e+00
	7.008228746846252e+00,0.0

 8	2.511886431509578e+01,0.000000000000000e+00
	7.031817326376103e+00,0.0

 9	2.818382931264452e+01,0.000000000000000e+00
	7.050645958540443e+00,0.0

 10	3.162277660168376e+01,0.000000000000000e+00
	7.065660338652227e+00,0.0

 11	3.548133892335751e+01,0.000000000000000e+00
	7.077623689529322e+00,0.0

 12	3.981071705534968e+01,0.000000000000000e+00
	7.087149974136121e+00,0.0

 13	4.466835921509626e+01,0.000000000000000e+00
	7.094731809411405e+00,0.0

 14	5.011872336272717e+01,0.000000000000000e+00
	7.100763635447610e+00,0.0

 15	5.623413251903484e+01,0.000000000000000e+00
	7.105560763007357e+00,0.0

 16	6.309573444801924e+01,0.000000000000000e+00
	7.109374917496090e+00,0.0

 17	7.079457843841369e+01,0.000000000000000e+00
	7.112406850925455e+00,0.0

 18	7.943282347242804e+01,0.000000000000000e+00
	7.114816528952991e+00,0.0

 19	8.912509381337442e+01,0.000000000000000e+00
	7.116731330298583e+00,0.0

 20	9.999999999999984e+01,0.000000000000000e+00
	7.118252627805534e+00,0.0

 21	1.122018454301962e+02,0.000000000000000e+00
	7.119461058785514e+00,0.0

 22	1.258925411794165e+02,0.000000000000000e+00
	7.120420738345755e+00,0.0

 23	1.412537544622752e+02,0.000000000000000e+00
	7.121182622459870e+00,0.0

 24	1.584893192461111e+02,0.000000000000000e+00
	7.121787189299454e+00,0.0

 25	1.778279410038919e+02,0.000000000000000e+00
	7.122266574270578e+00,0.0

 26	1.995262314968876e+02,0.000000000000000e+00
	7.122646268551213e+00,0.0

 27	2.238721138568335e+02,0.000000000000000e+00
	7.122946468355100e+00,0.0

 28	2.511886431509575e+02,0.000000000000000e+00
	7.123183145360951e+00,0.0

 29	2.818382931264447e+02,0.000000000000000e+00
	7.123368893983279e+00,0.0

 30	3.162277660168372e+02,0.000000000000000e+00
	7.123513599989421e+00,0.0

 31	3.548133892335746e+02,0.000000000000000e+00
	7.123624965757735e+00,0.0

 32	3.981071705534962e+02,0.000000000000000e+00
	7.123708919516911e+00,0.0

 33	4.466835921509619e+02,0.000000000000000e+00
	7.123769930654030e+00,0.0

 34	5.011872336272709e+02,0.000000000000000e+00
	7.123811247300012e+00,0.0

 35	5.623413251903476e+02,0.000000000000000e+00
	7.123835069177331e+00,0.0

 36	6.309573444801915e+02,0.000000000000000e+00
	7.123842664627842e+00,0.0

 37	7.079457843841359e+02,0.000000000000000e+00
	7.123834438028098e+00,0.0

 38	7.943282347242791e+02,0.000000000000000e+00
	7.123809951400593e+00,0.0

 39	8.912509381337428e+02,0.000000000000000e+00
	7.123767901020241e+00,0.0

 40	9.999999999999968e+02,0.000000000000000e+00
	7.123706048078953e+00,0.0

 41	1.122018454301960e+03,0.000000000000000e+00
	7.123621099649535e+00,0.0

 42	1.258925411794163e+03,0.000000000000000e+00
	7.123508533412261e+00,0.0

 43	1.412537544622749e+03,0.000000000000000e+00
	7.123362357263941e+00,0.0

 44	1.584893192461108e+03,0.000000000000000e+00
	7.123174790593701e+00,0.0

 45	1.778279410038916e+03,0.000000000000000e+00
	7.122935850936459e+00,0.0

 46	1.995262314968872e+03,0.000000000000000e+00
	7.122632823601282e+00,0.0

 47	2.238721138568331e+03,0.000000000000000e+00
	7.122249586608138e+00,0.0

 48	2.511886431509571e+03,0.000000000000000e+00
	7.121765755579403e+00,0.0

 49	2.818382931264443e+03,0.000000000000000e+00
	7.121155603328328e+00,0.0

 50	3.162277660168367e+03,0.000000000000000e+00
	7.120386698210726e+00,0.0

 51	3.548133892335740e+03,0.000000000000000e+00
	7.119418190084147e+00,0.0

 52	3.981071705534956e+03,0.000000000000000e+00
	7.118198655815180e+00,0.0

 53	4.466835921509612e+03,0.000000000000000e+00
	7.116663393862290e+00,0.0

 54	5.011872336272701e+03,0.000000000000000e+00
	7.114731030760311e+00,0.0

 55	5.623413251903467e+03,0.000000000000000e+00
	7.112299270555674e+00,0.0

 56	6.309573444801905e+03,0.000000000000000e+00
	7.109239577511898e+00,0.0

 57	7.079457843841347e+03,0.000000000000000e+00
	7.105390537712505e+00,0.0

 58	7.943282347242779e+03,0.000000000000000e+00
	7.100549588829935e+00,0.0

 59	8.912509381337413e+03,0.000000000000000e+00
	7.094462746707938e+00,0.0

 60	9.999999999999953e+03,0.000000000000000e+00
	7.086811888884885e+00,0.0

 61	1.122018454301958e+04,0.000000000000000e+00
	7.077199085520630e+00,0.0

 62	1.258925411794161e+04,0.000000000000000e+00
	7.065127404569912e+00,0.0

 63	1.412537544622747e+04,0.000000000000000e+00
	7.049977572758570e+00,0.0

 64	1.584893192461106e+04,0.000000000000000e+00
	7.030979871629252e+00,0.0

 65	1.778279410038914e+04,0.000000000000000e+00
	7.007180721643850e+00,0.0

 66	1.995262314968869e+04,0.000000000000000e+00
	6.977403610781404e+00,0.0

 67	2.238721138568328e+04,0.000000000000000e+00
	6.940204431420435e+00,0.0

 68	2.511886431509566e+04,0.000000000000000e+00
	6.893821997587950e+00,0.0

 69	2.818382931264438e+04,0.000000000000000e+00
	6.836125642950094e+00,0.0

 70	3.162277660168361e+04,0.000000000000000e+00
	6.764563462451195e+00,0.0

 71	3.548133892335734e+04,0.000000000000000e+00
	6.676117032951576e+00,0.0

 72	3.981071705534949e+04,0.000000000000000e+00
	6.567271272830731e+00,0.0

 73	4.466835921509604e+04,0.000000000000000e+00
	6.434011171457763e+00,0.0

 74	5.011872336272692e+04,0.000000000000000e+00
	6.271859718263483e+00,0.0

 75	5.623413251903455e+04,0.000000000000000e+00
	6.075972255438015e+00,0.0

 76	6.309573444801892e+04,0.000000000000000e+00
	5.841299978621906e+00,0.0

 77	7.079457843841333e+04,0.000000000000000e+00
	5.562827724409296e+00,0.0

 78	7.943282347242763e+04,0.000000000000000e+00
	5.235877742827208e+00,0.0

 79	8.912509381337395e+04,0.000000000000000e+00
	4.856453268101694e+00,0.0

 80	9.999999999999932e+04,0.000000000000000e+00
	4.421577812735681e+00,0.0

Title: ce02_nfb.cir - 1 transitor circuit
Date: Sun Sep 13 15:26:56  2020
Plotname: AC Analysis
Flags: complex
No. Variables: 2
No. Points: 81
Variables:
	0	frequency	frequency grid=3
	1	outdb	notype
Values:
 0	1.000000000000000e+01,0.000000000000000e+00
	6.621112952741301e+00,0.0

 1	1.122018454301963e+01,0.000000000000000e+00
	6.724675367447852e+00,0.0

 2	1.258925411794167e+01,0.000000000000000e+00
	6.808731370836870e+00,0.0

 3	1.412537544622754e+01,0.000000000000000e+00
	6.876676280442551e+00,0.0

 4	1.584893192461113e+01,0.000000000000000e+00
	6.931413314978171e+00,0.0

 5	1.778279410038922e+01,0.000000000000000e+00
	6.975388621311566e+00,0.0

 6	1.995262314968879e+01,0.000000000000000e+00
	7.010638983324837e+00,0.0

 7	2.238721138568338e+01,0.000000000000000e+00
	7.038844297251897e+00,0.0

 8	2.511886431509578e+01,0.000000000000000e+00
	7.061379601429760e+00,0.0

 9	2.818382931264452e+01,0.000000000000000e+00
	7.079363567238620e+00,0.0

 10	3.162277660168376e+01,0.000000000000000e+00
	7.093701878933097e+00,0.0

 11	3.548133892335751e+01,0.000000000000000e+00
	7.105124941737381e+00,0.0

 12	3.981071705534968e+01,0.000000000000000e+00
	7.114219981400677e+00,0.0

 13	4.466835921509626e+01,0.000000000000000e+00
	7.121457946349237e+00,0.0

 14	5.011872336272717e+01,0.000000000000000e+00
	7.127215789071567e+00,0.0

 15	5.623413251903484e+01,0.000000000000000e+00
	7.131794753377621e+00,0.0

 16	6.309573444801924e+01,0.000000000000000e+00
	7.135435278746030e+00,0.0

 17	7.079457843841369e+01,0.000000000000000e+00
	7.138329081155713e+00,0.0

 18	7.943282347242804e+01,0.000000000000000e+00
	7.140628903426590e+00,0.0

 19	8.912509381337442e+01,0.000000000000000e+00
	7.142456358277345e+00,0.0

 20	9.999999999999984e+01,0.000000000000000e+00
	7.143908220276557e+00,0.0

 21	1.122018454301962e+02,0.000000000000000e+00
	7.145061462690822e+00,0.0

 22	1.258925411794165e+02,0.000000000000000e+00
	7.145977282891803e+00,0.0

 23	1.412537544622752e+02,0.000000000000000e+00
	7.146704314608934e+00,0.0

 24	1.584893192461111e+02,0.000000000000000e+00
	7.147281188474196e+00,0.0

 25	1.778279410038919e+02,0.000000000000000e+00
	7.147738570494814e+00,0.0

 26	1.995262314968876e+02,0.000000000000000e+00
	7.148100783489767e+00,0.0

 27	2.238721138568335e+02,0.000000000000000e+00
	7.148387094864182e+00,0.0

 28	2.511886431509575e+02,0.000000000000000e+00
	7.148612738032791e+00,0.0

 29	2.818382931264447e+02,0.000000000000000e+00
	7.148789720668348e+00,0.0

 30	3.162277660168372e+02,0.000000000000000e+00
	7.148927462252729e+00,0.0

 31	3.548133892335746e+02,0.000000000000000e+00
	7.149033294622381e+00,0.0

 32	3.981071705534962e+02,0.000000000000000e+00
	7.149112851545601e+00,0.0

 33	4.466835921509619e+02,0.000000000000000e+00
	7.149170368396886e+00,0.0

 34	5.011872336272709e+02,0.000000000000000e+00
	7.149208907308331e+00,0.0

 35	5.623413251903476e+02,0.000000000000000e+00
	7.149230520132064e+00,0.0

 36	6.309573444801915e+02,0.000000000000000e+00
	7.149236357603256e+00,0.0

 37	7.079457843841359e+02,0.000000000000000e+00
	7.149226730501685e+00,0.0

 38	7.943282347242791e+02,0.000000000000000e+00
	7.149201126281172e+00,0.0

 39	8.912509381337428e+02,0.000000000000000e+00
	7.149158181709378e+00,0.0

 40	9.999999999999968e+02,0.000000000000000e+00
	7.149095610365201e+00,0.0

 41	1.122018454301960e+03,0.000000000000000e+00
	7.149010081067846e+00,0.0

 42	1.258925411794163e+03,0.000000000000000e+00
	7.148897040567049e+00,0.0

 43	1.412537544622749e+03,0.000000000000000e+00
	7.148750471506275e+00,0.0

 44	1.584893192461108e+03,0.000000000000000e+00
	7.148562572353503e+00,0.0

 45	1.778279410038916e+03,0.000000000000000e+00
	7.148323342942207e+00,0.0

 46	1.995262314968872e+03,0.000000000000000e+00
	7.148020053156157e+00,0.0

 47	2.238721138568331e+03,0.000000000000000e+00
	7.147636567048544e+00,0.0

 48	2.511886431509571e+03,0.000000000000000e+00
	7.147152486989196e+00,0.0

 49	2.818382931264443e+03,0.000000000000000e+00
	7.146542072551658e+00,0.0

 50	3.162277660168367e+03,0.000000000000000e+00
	7.145772878164194e+00,0.0

 51	3.548133892335740e+03,0.000000000000000e+00
	7.144804038335310e+00,0.0

 52	3.981071705534956e+03,0.000000000000000e+00
	7.143584112354480e+00,0.0

 53	4.466835921509612e+03,0.000000000000000e+00
	7.142048377958529e+00,0.0

 54	5.011872336272701e+03,0.000000000000000e+00
	7.140115436742795e+00,0.0

 55	5.623413251903467e+03,0.000000000000000e+00
	7.137682962313326e+00,0.0

 56	6.309573444801905e+03,0.000000000000000e+00
	7.134622381447187e+00,0.0

 57	7.079457843841347e+03,0.000000000000000e+00
	7.130772233816137e+00,0.0

 58	7.943282347242779e+03,0.000000000000000e+00
	7.125929899465941e+00,0.0

 59	8.912509381337413e+03,0.000000000000000e+00
	7.119841322622192e+00,0.0

 60	9.999999999999953e+03,0.000000000000000e+00
	7.112188291853058e+00,0.0

 61	1.122018454301958e+04,0.000000000000000e+00
	7.102572766970191e+00,0.0

 62	1.258925411794161e+04,0.000000000000000e+00
	7.090497679437872e+00,0.0

 63	1.412537544622747e+04,0.000000000000000e+00
	7.075343587811052e+00,0.0

 64	1.584893192461106e+04,0.000000000000000e+00
	7.056340567499115e+00,0.0

 65	1.778279410038914e+04,0.000000000000000e+00
	7.032534788009000e+00,0.0

 66	1.995262314968869e+04,0.000000000000000e+00
	7.002749434457981e+00,0.0

 67	2.238721138568328e+04,0.000000000000000e+00
	6.965540037823451e+00,0.0

 68	2.511886431509566e+04,0.000000000000000e+00
	6.919144987114415e+00,0.0

 69	2.818382931264438e+04,0.000000000000000e+00
	6.861433125554779e+00,0.0

 70	3.162277660168361e+04,0.000000000000000e+00
	6.789851996116250e+00,0.0

 71	3.548133892335734e+04,0.000000000000000e+00
	6.701382574938018e+00,0.0

 72	3.981071705534949e+04,0.000000000000000e+00
	6.592509156358691e+00,0.0

 73	4.466835921509604e+04,0.000000000000000e+00
	6.459216124167590e+00,0.0

 74	5.011872336272692e+04,0.000000000000000e+00
	6.297025941292890e+00,0.0

 75	5.623413251903455e+04,0.000000000000000e+00
	6.101093581322420e+00,0.0

 76	6.309573444801892e+04,0.000000000000000e+00
	5.866370120287393e+00,0.0

 77	7.079457843841333e+04,0.000000000000000e+00
	5.587840614473494e+00,0.0

 78	7.943282347242763e+04,0.000000000000000e+00
	5.260827942432453e+00,0.0

 79	8.912509381337395e+04,0.000000000000000e+00
	4.881336401105465e+00,0.0

 80	9.999999999999932e+04,0.000000000000000e+00
	4.446390961634530e+00,0.0

Title: ce02_nfb.cir - 1 transitor circuit
Date: Sun Sep 13 15:26:56  2020
Plotname: AC Analysis
Flags: complex
No. Variables: 2
No. Points: 81
Variables:
	0	frequency	frequency grid=3
	1	outdb	notype
Values:
 0	1.000000000000000e+01,0.000000000000000e+00
	6.655539481912829e+00,0.0

 1	1.122018454301963e+01,0.000000000000000e+00
	6.756014090976754e+00,0.0

 2	1.258925411794167e+01,0.000000000000000e+00
	6.837510850985302e+00,0.0

 3	1.412537544622754e+01,0.000000000000000e+00
	6.903351670507869e+00,0.0

 4	1.584893192461113e+01,0.000000000000000e+00
	6.956370281821930e+00,0.0

 5	1.778279410038922e+01,0.000000000000000e+00
	6.998949744725669e+00,0.0

 6	1.995262314968879e+01,0.000000000000000e+00
	7.033071283514990e+00,0.0

 7	2.238721138568338e+01,0.000000000000000e+00
	7.060366969189877e+00,0.0

 8	2.511886431509578e+01,0.000000000000000e+00
	7.082171384241387e+00,0.0

 9	2.818382931264452e+01,0.000000000000000e+00
	7.099569435830722e+00,0.0

 10	3.162277660168376e+01,0.000000000000000e+00
	7.113438922573774e+00,0.0

 11	3.548133892335751e+01,0.000000000000000e+00
	7.124487407209589e+00,0.0

 12	3.981071705534968e+01,0.000000000000000e+00
	7.133283524207111e+00,0.0

 13	4.466835921509626e+01,0.000000000000000e+00
	7.140283167276325e+00,0.0

 14	5.011872336272717e+01,0.000000000000000e+00
	7.145851146696992e+00,0.0

 15	5.623413251903484e+01,0.000000000000000e+00
	7.150278944049516e+00,0.0

 16	6.309573444801924e+01,0.000000000000000e+00
	7.153799169683762e+00,0.0

 17	7.079457843841369e+01,0.000000000000000e+00
	7.156597273194412e+00,0.0

 18	7.943282347242804e+01,0.000000000000000e+00
	7.158820989697793e+00,0.0

 19	8.912509381337442e+01,0.000000000000000e+00
	7.160587935048803e+00,0.0

 20	9.999999999999984e+01,0.000000000000000e+00
	7.161991696894546e+00,0.0

 21	1.122018454301962e+02,0.000000000000000e+00
	7.163106709381467e+00,0.0

 22	1.258925411794165e+02,0.000000000000000e+00
	7.163992148142665e+00,0.0

 23	1.412537544622752e+02,0.000000000000000e+00
	7.164695037917385e+00,0.0

 24	1.584893192461111e+02,0.000000000000000e+00
	7.165252729331296e+00,0.0

 25	1.778279410038919e+02,0.000000000000000e+00
	7.165694870417553e+00,0.0

 26	1.995262314968876e+02,0.000000000000000e+00
	7.166044974607844e+00,0.0

 27	2.238721138568335e+02,0.000000000000000e+00
	7.166321665887824e+00,0.0

 28	2.511886431509575e+02,0.000000000000000e+00
	7.166539666262759e+00,0.0

 29	2.818382931264447e+02,0.000000000000000e+00
	7.166710576963716e+00,0.0

 30	3.162277660168372e+02,0.000000000000000e+00
	7.166843494477197e+00,0.0

 31	3.548133892335746e+02,0.000000000000000e+00
	7.166945493965111e+00,0.0

 32	3.981071705534962e+02,0.000000000000000e+00
	7.167022005222591e+00,0.0

 33	4.466835921509619e+02,0.000000000000000e+00
	7.167077101521224e+00,0.0

 34	5.011872336272709e+02,0.000000000000000e+00
	7.167113716146492e+00,0.0

 35	5.623413251903476e+02,0.000000000000000e+00
	7.167133798510473e+00,0.0

 36	6.309573444801915e+02,0.000000000000000e+00
	7.167138417868931e+00,0.0

 37	7.079457843841359e+02,0.000000000000000e+00
	7.167127820146789e+00,0.0

 38	7.943282347242791e+02,0.000000000000000e+00
	7.167101441117694e+00,0.0

 39	8.912509381337428e+02,0.000000000000000e+00
	7.167057876293934e+00,0.0

 40	9.999999999999968e+02,0.000000000000000e+00
	7.166994806227343e+00,0.0

 41	1.122018454301960e+03,0.000000000000000e+00
	7.166908873181280e+00,0.0

 42	1.258925411794163e+03,0.000000000000000e+00
	7.166795502406230e+00,0.0

 43	1.412537544622749e+03,0.000000000000000e+00
	7.166648658959494e+00,0.0

 44	1.584893192461108e+03,0.000000000000000e+00
	7.166460526699138e+00,0.0

 45	1.778279410038916e+03,0.000000000000000e+00
	7.166221093047488e+00,0.0

 46	1.995262314968872e+03,0.000000000000000e+00
	7.165917617016451e+00,0.0

 47	2.238721138568331e+03,0.000000000000000e+00
	7.165533952747393e+00,0.0

 48	2.511886431509571e+03,0.000000000000000e+00
	7.165049693133082e+00,0.0

 49	2.818382931264443e+03,0.000000000000000e+00
	7.164439088201417e+00,0.0

 50	3.162277660168367e+03,0.000000000000000e+00
	7.163669682262243e+00,0.0

 51	3.548133892335740e+03,0.000000000000000e+00
	7.162700598599281e+00,0.0

 52	3.981071705534956e+03,0.000000000000000e+00
	7.161480383581685e+00,0.0

 53	4.466835921509612e+03,0.000000000000000e+00
	7.159944299657600e+00,0.0

 54	5.011872336272701e+03,0.000000000000000e+00
	7.158010929971224e+00,0.0

 55	5.623413251903467e+03,0.000000000000000e+00
	7.155577925569307e+00,0.0

 56	6.309573444801905e+03,0.000000000000000e+00
	7.152516685414291e+00,0.0

 57	7.079457843841347e+03,0.000000000000000e+00
	7.148665714713005e+00,0.0

 58	7.943282347242779e+03,0.000000000000000e+00
	7.143822350699406e+00,0.0

 59	8.912509381337413e+03,0.000000000000000e+00
	7.137732484373885e+00,0.0

 60	9.999999999999953e+03,0.000000000000000e+00
	7.130077838171309e+00,0.0

 61	1.122018454301958e+04,0.000000000000000e+00
	7.120460289869390e+00,0.0

 62	1.258925411794161e+04,0.000000000000000e+00
	7.108382669456471e+00,0.0

 63	1.412537544622747e+04,0.000000000000000e+00
	7.093225410450418e+00,0.0

 64	1.584893192461106e+04,0.000000000000000e+00
	7.074218434996393e+00,0.0

 65	1.778279410038914e+04,0.000000000000000e+00
	7.050407726007469e+00,0.0

 66	1.995262314968869e+04,0.000000000000000e+00
	7.020616243413487e+00,0.0

 67	2.238721138568328e+04,0.000000000000000e+00
	6.983399249479162e+00,0.0

 68	2.511886431509566e+04,0.000000000000000e+00
	6.936994817204400e+00,0.0

 69	2.818382931264438e+04,0.000000000000000e+00
	6.879271425169199e+00,0.0

 70	3.162277660168361e+04,0.000000000000000e+00
	6.807676205966668e+00,0.0

 71	3.548133892335734e+04,0.000000000000000e+00
	6.719189689135070e+00,0.0

 72	3.981071705534949e+04,0.000000000000000e+00
	6.610295705107867e+00,0.0

 73	4.466835921509604e+04,0.000000000000000e+00
	6.476978187541875e+00,0.0

 74	5.011872336272692e+04,0.000000000000000e+00
	6.314759208086719e+00,0.0

 75	5.623413251903455e+04,0.000000000000000e+00
	6.118793466521963e+00,0.0

 76	6.309573444801892e+04,0.000000000000000e+00
	5.884031950267571e+00,0.0

 77	7.079457843841333e+04,0.000000000000000e+00
	5.605459879332974e+00,0.0

 78	7.943282347242763e+04,0.000000000000000e+00
	5.278400599997436e+00,0.0

 79	8.912509381337395e+04,0.000000000000000e+00
	4.898859199746031e+00,0.0

 80	9.999999999999932e+04,0.000000000000000e+00
	4.463861734586640e+00,0.0

