Title: stage2a.cir - common emitter+common collector
Date: Wed Jan 27 14:32:07  2021
Plotname: AC Analysis
Flags: complex
No. Variables: 2
No. Points: 121
Variables:
	0	frequency	frequency grid=3
	1	outdb	notype
Values:
 0	1.000000000000000e+01,0.000000000000000e+00
	2.306266029172574e+01,0.0

 1	1.122018454301963e+01,0.000000000000000e+00
	2.333126163518221e+01,0.0

 2	1.258925411794167e+01,0.000000000000000e+00
	2.355711747764511e+01,0.0

 3	1.412537544622754e+01,0.000000000000000e+00
	2.374527921007157e+01,0.0

 4	1.584893192461113e+01,0.000000000000000e+00
	2.390077270419193e+01,0.0

 5	1.778279410038922e+01,0.000000000000000e+00
	2.402837681308906e+01,0.0

 6	1.995262314968879e+01,0.000000000000000e+00
	2.413247594005801e+01,0.0

 7	2.238721138568338e+01,0.000000000000000e+00
	2.421697938994817e+01,0.0

 8	2.511886431509578e+01,0.000000000000000e+00
	2.428529385724421e+01,0.0

 9	2.818382931264452e+01,0.000000000000000e+00
	2.434033380166596e+01,0.0

 10	3.162277660168376e+01,0.000000000000000e+00
	2.438455585915721e+01,0.0

 11	3.548133892335751e+01,0.000000000000000e+00
	2.442000622437069e+01,0.0

 12	3.981071705534968e+01,0.000000000000000e+00
	2.444837300144706e+01,0.0

 13	4.466835921509626e+01,0.000000000000000e+00
	2.447103823884756e+01,0.0

 14	5.011872336272717e+01,0.000000000000000e+00
	2.448912650087272e+01,0.0

 15	5.623413251903484e+01,0.000000000000000e+00
	2.450354836569995e+01,0.0

 16	6.309573444801924e+01,0.000000000000000e+00
	2.451503826506096e+01,0.0

 17	7.079457843841369e+01,0.000000000000000e+00
	2.452418671380853e+01,0.0

 18	7.943282347242804e+01,0.000000000000000e+00
	2.453146733250023e+01,0.0

 19	8.912509381337442e+01,0.000000000000000e+00
	2.453725923561615e+01,0.0

 20	9.999999999999984e+01,0.000000000000000e+00
	2.454186541133284e+01,0.0

 21	1.122018454301962e+02,0.000000000000000e+00
	2.454552770417972e+01,0.0

 22	1.258925411794165e+02,0.000000000000000e+00
	2.454843896141722e+01,0.0

 23	1.412537544622752e+02,0.000000000000000e+00
	2.455075283775538e+01,0.0

 24	1.584893192461111e+02,0.000000000000000e+00
	2.455259168316790e+01,0.0

 25	1.778279410038919e+02,0.000000000000000e+00
	2.455405287172431e+01,0.0

 26	1.995262314968876e+02,0.000000000000000e+00
	2.455521386892651e+01,0.0

 27	2.238721138568335e+02,0.000000000000000e+00
	2.455613628228139e+01,0.0

 28	2.511886431509575e+02,0.000000000000000e+00
	2.455686909487007e+01,0.0

 29	2.818382931264447e+02,0.000000000000000e+00
	2.455745124401676e+01,0.0

 30	3.162277660168372e+02,0.000000000000000e+00
	2.455791367598015e+01,0.0

 31	3.548133892335746e+02,0.000000000000000e+00
	2.455828098204122e+01,0.0

 32	3.981071705534962e+02,0.000000000000000e+00
	2.455857270055583e+01,0.0

 33	4.466835921509619e+02,0.000000000000000e+00
	2.455880435269550e+01,0.0

 34	5.011872336272709e+02,0.000000000000000e+00
	2.455898826600753e+01,0.0

 35	5.623413251903476e+02,0.000000000000000e+00
	2.455913422900961e+01,0.0

 36	6.309573444801915e+02,0.000000000000000e+00
	2.455925001127020e+01,0.0

 37	7.079457843841359e+02,0.000000000000000e+00
	2.455934177641217e+01,0.0

 38	7.943282347242791e+02,0.000000000000000e+00
	2.455941440987301e+01,0.0

 39	8.912509381337428e+02,0.000000000000000e+00
	2.455947177877181e+01,0.0

 40	9.999999999999968e+02,0.000000000000000e+00
	2.455951693765767e+01,0.0

 41	1.122018454301960e+03,0.000000000000000e+00
	2.455955229105671e+01,0.0

 42	1.258925411794163e+03,0.000000000000000e+00
	2.455957972144618e+01,0.0

 43	1.412537544622749e+03,0.000000000000000e+00
	2.455960068945564e+01,0.0

 44	1.584893192461108e+03,0.000000000000000e+00
	2.455961631162139e+01,0.0

 45	1.778279410038916e+03,0.000000000000000e+00
	2.455962741982614e+01,0.0

 46	1.995262314968872e+03,0.000000000000000e+00
	2.455963460558960e+01,0.0

 47	2.238721138568331e+03,0.000000000000000e+00
	2.455963825156100e+01,0.0

 48	2.511886431509571e+03,0.000000000000000e+00
	2.455963855189272e+01,0.0

 49	2.818382931264443e+03,0.000000000000000e+00
	2.455963552257781e+01,0.0

 50	3.162277660168367e+03,0.000000000000000e+00
	2.455962900230115e+01,0.0

 51	3.548133892335740e+03,0.000000000000000e+00
	2.455961864385113e+01,0.0

 52	3.981071705534956e+03,0.000000000000000e+00
	2.455960389563183e+01,0.0

 53	4.466835921509612e+03,0.000000000000000e+00
	2.455958397229615e+01,0.0

 54	5.011872336272701e+03,0.000000000000000e+00
	2.455955781293303e+01,0.0

 55	5.623413251903467e+03,0.000000000000000e+00
	2.455952402458688e+01,0.0

 56	6.309573444801905e+03,0.000000000000000e+00
	2.455948080810613e+01,0.0

 57	7.079457843841347e+03,0.000000000000000e+00
	2.455942586237374e+01,0.0

 58	7.943282347242779e+03,0.000000000000000e+00
	2.455935626183390e+01,0.0

 59	8.912509381337413e+03,0.000000000000000e+00
	2.455926830080401e+01,0.0

 60	9.999999999999953e+03,0.000000000000000e+00
	2.455915729630644e+01,0.0

 61	1.122018454301958e+04,0.000000000000000e+00
	2.455901733895686e+01,0.0

 62	1.258925411794161e+04,0.000000000000000e+00
	2.455884097870037e+01,0.0

 63	1.412537544622747e+04,0.000000000000000e+00
	2.455861882875769e+01,0.0

 64	1.584893192461106e+04,0.000000000000000e+00
	2.455833906683214e+01,0.0

 65	1.778279410038914e+04,0.000000000000000e+00
	2.455798680725490e+01,0.0

 66	1.995262314968869e+04,0.000000000000000e+00
	2.455754331100231e+01,0.0

 67	2.238721138568328e+04,0.000000000000000e+00
	2.455698499210355e+01,0.0

 68	2.511886431509566e+04,0.000000000000000e+00
	2.455628216845862e+01,0.0

 69	2.818382931264438e+04,0.000000000000000e+00
	2.455539749202164e+01,0.0

 70	3.162277660168361e+04,0.000000000000000e+00
	2.455428397707703e+01,0.0

 71	3.548133892335734e+04,0.000000000000000e+00
	2.455288252530667e+01,0.0

 72	3.981071705534949e+04,0.000000000000000e+00
	2.455111882167504e+01,0.0

 73	4.466835921509604e+04,0.000000000000000e+00
	2.454889944505079e+01,0.0

 74	5.011872336272692e+04,0.000000000000000e+00
	2.454610700097828e+01,0.0

 75	5.623413251903455e+04,0.000000000000000e+00
	2.454259404034087e+01,0.0

 76	6.309573444801892e+04,0.000000000000000e+00
	2.453817547615979e+01,0.0

 77	7.079457843841333e+04,0.000000000000000e+00
	2.453261915144331e+01,0.0

 78	7.943282347242763e+04,0.000000000000000e+00
	2.452563414477726e+01,0.0

 79	8.912509381337395e+04,0.000000000000000e+00
	2.451685633006258e+01,0.0

 80	9.999999999999932e+04,0.000000000000000e+00
	2.450583063832202e+01,0.0

 81	1.122018454301956e+05,0.000000000000000e+00
	2.449198941354876e+01,0.0

 82	1.258925411794158e+05,0.000000000000000e+00
	2.447462622939372e+01,0.0

 83	1.412537544622744e+05,0.000000000000000e+00
	2.445286456831113e+01,0.0

 84	1.584893192461102e+05,0.000000000000000e+00
	2.442562090411694e+01,0.0

 85	1.778279410038910e+05,0.000000000000000e+00
	2.439156203738090e+01,0.0

 86	1.995262314968865e+05,0.000000000000000e+00
	2.434905709857862e+01,0.0

 87	2.238721138568323e+05,0.000000000000000e+00
	2.429612556667882e+01,0.0

 88	2.511886431509561e+05,0.000000000000000e+00
	2.423038407138678e+01,0.0

 89	2.818382931264432e+05,0.000000000000000e+00
	2.414899675408434e+01,0.0

 90	3.162277660168355e+05,0.000000000000000e+00
	2.404863656693137e+01,0.0

 91	3.548133892335726e+05,0.000000000000000e+00
	2.392546790721446e+01,0.0

 92	3.981071705534941e+05,0.000000000000000e+00
	2.377516388775133e+01,0.0

 93	4.466835921509595e+05,0.000000000000000e+00
	2.359297332243010e+01,0.0

 94	5.011872336272682e+05,0.000000000000000e+00
	2.337385163314914e+01,0.0

 95	5.623413251903445e+05,0.000000000000000e+00
	2.311266458352798e+01,0.0

 96	6.309573444801880e+05,0.000000000000000e+00
	2.280446271455260e+01,0.0

 97	7.079457843841319e+05,0.000000000000000e+00
	2.244480794368433e+01,0.0

 98	7.943282347242747e+05,0.000000000000000e+00
	2.203011512534067e+01,0.0

 99	8.912509381337379e+05,0.000000000000000e+00
	2.155795651274287e+01,0.0

 100	9.999999999999914e+05,0.000000000000000e+00
	2.102727316546183e+01,0.0

 101	1.122018454301954e+06,0.000000000000000e+00
	2.043844904363373e+01,0.0

 102	1.258925411794156e+06,0.000000000000000e+00
	1.979322942238428e+01,0.0

 103	1.412537544622742e+06,0.000000000000000e+00
	1.909449733924902e+01,0.0

 104	1.584893192461099e+06,0.000000000000000e+00
	1.834594893506102e+01,0.0

 105	1.778279410038907e+06,0.000000000000000e+00
	1.755172215268525e+01,0.0

 106	1.995262314968862e+06,0.000000000000000e+00
	1.671603112085098e+01,0.0

 107	2.238721138568319e+06,0.000000000000000e+00
	1.584284478947752e+01,0.0

 108	2.511886431509557e+06,0.000000000000000e+00
	1.493563012672827e+01,0.0

 109	2.818382931264428e+06,0.000000000000000e+00
	1.399716384528754e+01,0.0

 110	3.162277660168350e+06,0.000000000000000e+00
	1.302940580290831e+01,0.0

 111	3.548133892335722e+06,0.000000000000000e+00
	1.203342265846921e+01,0.0

 112	3.981071705534935e+06,0.000000000000000e+00
	1.100935100724665e+01,0.0

 113	4.466835921509589e+06,0.000000000000000e+00
	9.956393305851030e+00,0.0

 114	5.011872336272676e+06,0.000000000000000e+00
	8.872845740734917e+00,0.0

 115	5.623413251903437e+06,0.000000000000000e+00
	7.756163231782073e+00,0.0

 116	6.309573444801872e+06,0.000000000000000e+00
	6.603071508232635e+00,0.0

 117	7.079457843841311e+06,0.000000000000000e+00
	5.409737998078750e+00,0.0

 118	7.943282347242737e+06,0.000000000000000e+00
	4.172010297292097e+00,0.0

 119	8.912509381337367e+06,0.000000000000000e+00
	2.885721976976289e+00,0.0

 120	9.999999999999899e+06,0.000000000000000e+00
	1.547050441538638e+00,0.0

