Title: ce02a.cir - 1 transitor circuit
Date: Thu Sep 10 18:01:21  2020
Plotname: AC Analysis
Flags: complex
No. Variables: 2
No. Points: 81
Variables:
	0	frequency	frequency grid=3
	1	outdb	notype
Values:
 0	1.000000000000000e+01,0.000000000000000e+00
	3.424708845890118e+01,0.0

 1	1.122018454301963e+01,0.000000000000000e+00
	3.511068705912459e+01,0.0

 2	1.258925411794167e+01,0.000000000000000e+00
	3.594311618954728e+01,0.0

 3	1.412537544622754e+01,0.000000000000000e+00
	3.673964483104047e+01,0.0

 4	1.584893192461113e+01,0.000000000000000e+00
	3.749535872470068e+01,0.0

 5	1.778279410038922e+01,0.000000000000000e+00
	3.820542623656807e+01,0.0

 6	1.995262314968879e+01,0.000000000000000e+00
	3.886542316168978e+01,0.0

 7	2.238721138568338e+01,0.000000000000000e+00
	3.947168524253409e+01,0.0

 8	2.511886431509578e+01,0.000000000000000e+00
	4.002164042704042e+01,0.0

 9	2.818382931264452e+01,0.000000000000000e+00
	4.051406507271337e+01,0.0

 10	3.162277660168376e+01,0.000000000000000e+00
	4.094921521960369e+01,0.0

 11	3.548133892335751e+01,0.000000000000000e+00
	4.132880633785518e+01,0.0

 12	3.981071705534968e+01,0.000000000000000e+00
	4.165584636497907e+01,0.0

 13	4.466835921509626e+01,0.000000000000000e+00
	4.193435661978971e+01,0.0

 14	5.011872336272717e+01,0.000000000000000e+00
	4.216903338620709e+01,0.0

 15	5.623413251903484e+01,0.000000000000000e+00
	4.236490529127855e+01,0.0

 16	6.309573444801924e+01,0.000000000000000e+00
	4.252703050871303e+01,0.0

 17	7.079457843841369e+01,0.000000000000000e+00
	4.266025990428063e+01,0.0

 18	7.943282347242804e+01,0.000000000000000e+00
	4.276907436281110e+01,0.0

 19	8.912509381337442e+01,0.000000000000000e+00
	4.285749112186256e+01,0.0

 20	9.999999999999984e+01,0.000000000000000e+00
	4.292902637810862e+01,0.0

 21	1.122018454301962e+02,0.000000000000000e+00
	4.298669895411965e+01,0.0

 22	1.258925411794165e+02,0.000000000000000e+00
	4.303306071785505e+01,0.0

 23	1.412537544622752e+02,0.000000000000000e+00
	4.307024204940940e+01,0.0

 24	1.584893192461111e+02,0.000000000000000e+00
	4.310000371886785e+01,0.0

 25	1.778279410038919e+02,0.000000000000000e+00
	4.312378935964745e+01,0.0

 26	1.995262314968876e+02,0.000000000000000e+00
	4.314277498960953e+01,0.0

 27	2.238721138568335e+02,0.000000000000000e+00
	4.315791369048394e+01,0.0

 28	2.511886431509575e+02,0.000000000000000e+00
	4.316997468096979e+01,0.0

 29	2.818382931264447e+02,0.000000000000000e+00
	4.317957672448308e+01,0.0

 30	3.162277660168372e+02,0.000000000000000e+00
	4.318721621794908e+01,0.0

 31	3.548133892335746e+02,0.000000000000000e+00
	4.319329051012318e+01,0.0

 32	3.981071705534962e+02,0.000000000000000e+00
	4.319811707045118e+01,0.0

 33	4.466835921509619e+02,0.000000000000000e+00
	4.320194912660306e+01,0.0

 34	5.011872336272709e+02,0.000000000000000e+00
	4.320498834262612e+01,0.0

 35	5.623413251903476e+02,0.000000000000000e+00
	4.320739504593924e+01,0.0

 36	6.309573444801915e+02,0.000000000000000e+00
	4.320929644042309e+01,0.0

 37	7.079457843841359e+02,0.000000000000000e+00
	4.321079317460526e+01,0.0

 38	7.943282347242791e+02,0.000000000000000e+00
	4.321196457139553e+01,0.0

 39	8.912509381337428e+02,0.000000000000000e+00
	4.321287276987314e+01,0.0

 40	9.999999999999968e+02,0.000000000000000e+00
	4.321356598242821e+01,0.0

 41	1.122018454301960e+03,0.000000000000000e+00
	4.321408102951693e+01,0.0

 42	1.258925411794163e+03,0.000000000000000e+00
	4.321444527978193e+01,0.0

 43	1.412537544622749e+03,0.000000000000000e+00
	4.321467809483164e+01,0.0

 44	1.584893192461108e+03,0.000000000000000e+00
	4.321479185240199e+01,0.0

 45	1.778279410038916e+03,0.000000000000000e+00
	4.321479260126755e+01,0.0

 46	1.995262314968872e+03,0.000000000000000e+00
	4.321468038128003e+01,0.0

 47	2.238721138568331e+03,0.000000000000000e+00
	4.321444922543193e+01,0.0

 48	2.511886431509571e+03,0.000000000000000e+00
	4.321408684419050e+01,0.0

 49	2.818382931264443e+03,0.000000000000000e+00
	4.321357397530269e+01,0.0

 50	3.162277660168367e+03,0.000000000000000e+00
	4.321288336583863e+01,0.0

 51	3.548133892335740e+03,0.000000000000000e+00
	4.321197833351469e+01,0.0

 52	3.981071705534956e+03,0.000000000000000e+00
	4.321081083379040e+01,0.0

 53	4.466835921509612e+03,0.000000000000000e+00
	4.320931893400222e+01,0.0

 54	5.011872336272701e+03,0.000000000000000e+00
	4.320742356684519e+01,0.0

 55	5.623413251903467e+03,0.000000000000000e+00
	4.320502440195898e+01,0.0

 56	6.309573444801905e+03,0.000000000000000e+00
	4.320199463234322e+01,0.0

 57	7.079457843841347e+03,0.000000000000000e+00
	4.319817442650311e+01,0.0

 58	7.943282347242779e+03,0.000000000000000e+00
	4.319336274013222e+01,0.0

 59	8.912509381337413e+03,0.000000000000000e+00
	4.318730711983704e+01,0.0

 60	9.999999999999953e+03,0.000000000000000e+00
	4.317969106237861e+01,0.0

 61	1.122018454301958e+04,0.000000000000000e+00
	4.317011842275568e+01,0.0

 62	1.258925411794161e+04,0.000000000000000e+00
	4.315809430025578e+01,0.0

 63	1.412537544622747e+04,0.000000000000000e+00
	4.314300178557899e+01,0.0

 64	1.584893192461106e+04,0.000000000000000e+00
	4.312407394867542e+01,0.0

 65	1.778279410038914e+04,0.000000000000000e+00
	4.310036051889817e+01,0.0

 66	1.995262314968869e+04,0.000000000000000e+00
	4.307068890976878e+01,0.0

 67	2.238721138568328e+04,0.000000000000000e+00
	4.303361964393117e+01,0.0

 68	2.511886431509566e+04,0.000000000000000e+00
	4.298739693637359e+01,0.0

 69	2.818382931264438e+04,0.000000000000000e+00
	4.292989631456238e+01,0.0

 70	3.162277660168361e+04,0.000000000000000e+00
	4.285857280730633e+01,0.0

 71	3.548133892335734e+04,0.000000000000000e+00
	4.277041549676517e+01,0.0

 72	3.981071705534949e+04,0.000000000000000e+00
	4.266191704529306e+01,0.0

 73	4.466835921509604e+04,0.000000000000000e+00
	4.252906987997817e+01,0.0

 74	5.011872336272692e+04,0.000000000000000e+00
	4.236740333209926e+01,0.0

 75	5.623413251903455e+04,0.000000000000000e+00
	4.217207696206891e+01,0.0

 76	6.309573444801892e+04,0.000000000000000e+00
	4.193804286846706e+01,0.0

 77	7.079457843841333e+04,0.000000000000000e+00
	4.166028228450052e+01,0.0

 78	7.943282347242763e+04,0.000000000000000e+00
	4.133410841329833e+01,0.0

 79	8.912509381337395e+04,0.000000000000000e+00
	4.095550961214086e+01,0.0

 80	9.999999999999932e+04,0.000000000000000e+00
	4.052148909727285e+01,0.0

Title: ce02a.cir - 1 transitor circuit
Date: Thu Sep 10 18:01:21  2020
Plotname: AC Analysis
Flags: complex
No. Variables: 2
No. Points: 81
Variables:
	0	frequency	frequency grid=3
	1	outdb	notype
Values:
 0	1.000000000000000e+01,0.000000000000000e+00
	3.607162261356852e+01,0.0

 1	1.122018454301963e+01,0.000000000000000e+00
	3.687895028063817e+01,0.0

 2	1.258925411794167e+01,0.000000000000000e+00
	3.764552819545341e+01,0.0

 3	1.412537544622754e+01,0.000000000000000e+00
	3.836665325815221e+01,0.0

 4	1.584893192461113e+01,0.000000000000000e+00
	3.903793519753470e+01,0.0

 5	1.778279410038922e+01,0.000000000000000e+00
	3.965565375460228e+01,0.0

 6	1.995262314968879e+01,0.000000000000000e+00
	4.021710390630417e+01,0.0

 7	2.238721138568338e+01,0.000000000000000e+00
	4.072087398167419e+01,0.0

 8	2.511886431509578e+01,0.000000000000000e+00
	4.116700553286683e+01,0.0

 9	2.818382931264452e+01,0.000000000000000e+00
	4.155700359302645e+01,0.0

 10	3.162277660168376e+01,0.000000000000000e+00
	4.189369642386186e+01,0.0

 11	3.548133892335751e+01,0.000000000000000e+00
	4.218097472969072e+01,0.0

 12	3.981071705534968e+01,0.000000000000000e+00
	4.242346109338108e+01,0.0

 13	4.466835921509626e+01,0.000000000000000e+00
	4.262616554640427e+01,0.0

 14	5.011872336272717e+01,0.000000000000000e+00
	4.279417406587007e+01,0.0

 15	5.623413251903484e+01,0.000000000000000e+00
	4.293239954318078e+01,0.0

 16	6.309573444801924e+01,0.000000000000000e+00
	4.304540646197913e+01,0.0

 17	7.079457843841369e+01,0.000000000000000e+00
	4.313730611698347e+01,0.0

 18	7.943282347242804e+01,0.000000000000000e+00
	4.321171060283086e+01,0.0

 19	8.912509381337442e+01,0.000000000000000e+00
	4.327173052211235e+01,0.0

 20	9.999999999999984e+01,0.000000000000000e+00
	4.332000178877821e+01,0.0

 21	1.122018454301962e+02,0.000000000000000e+00
	4.335872930484118e+01,0.0

 22	1.258925411794165e+02,0.000000000000000e+00
	4.338973833782013e+01,0.0

 23	1.412537544622752e+02,0.000000000000000e+00
	4.341452732170367e+01,0.0

 24	1.584893192461111e+02,0.000000000000000e+00
	4.343431817903805e+01,0.0

 25	1.778279410038919e+02,0.000000000000000e+00
	4.345010202479821e+01,0.0

 26	1.995262314968876e+02,0.000000000000000e+00
	4.346267932441282e+01,0.0

 27	2.238721138568335e+02,0.000000000000000e+00
	4.347269434871475e+01,0.0

 28	2.511886431509575e+02,0.000000000000000e+00
	4.348066421994658e+01,0.0

 29	2.818382931264447e+02,0.000000000000000e+00
	4.348700307426710e+01,0.0

 30	3.162277660168372e+02,0.000000000000000e+00
	4.349204195783859e+01,0.0

 31	3.548133892335746e+02,0.000000000000000e+00
	4.349604508044290e+01,0.0

 32	3.981071705534962e+02,0.000000000000000e+00
	4.349922301017094e+01,0.0

 33	4.466835921509619e+02,0.000000000000000e+00
	4.350174333113399e+01,0.0

 34	5.011872336272709e+02,0.000000000000000e+00
	4.350373921523047e+01,0.0

 35	5.623413251903476e+02,0.000000000000000e+00
	4.350531629071114e+01,0.0

 36	6.309573444801915e+02,0.000000000000000e+00
	4.350655812586054e+01,0.0

 37	7.079457843841359e+02,0.000000000000000e+00
	4.350753058980526e+01,0.0

 38	7.943282347242791e+02,0.000000000000000e+00
	4.350828530384221e+01,0.0

 39	8.912509381337428e+02,0.000000000000000e+00
	4.350886235467799e+01,0.0

 40	9.999999999999968e+02,0.000000000000000e+00
	4.350929240671835e+01,0.0

 41	1.122018454301960e+03,0.000000000000000e+00
	4.350959832099090e+01,0.0

 42	1.258925411794163e+03,0.000000000000000e+00
	4.350979636366876e+01,0.0

 43	1.412537544622749e+03,0.000000000000000e+00
	4.350989706705413e+01,0.0

 44	1.584893192461108e+03,0.000000000000000e+00
	4.350990578725414e+01,0.0

 45	1.778279410038916e+03,0.000000000000000e+00
	4.350982298813791e+01,0.0

 46	1.995262314968872e+03,0.000000000000000e+00
	4.350964426583766e+01,0.0

 47	2.238721138568331e+03,0.000000000000000e+00
	4.350936011535723e+01,0.0

 48	2.511886431509571e+03,0.000000000000000e+00
	4.350895542725042e+01,0.0

 49	2.818382931264443e+03,0.000000000000000e+00
	4.350840868773935e+01,0.0

 50	3.162277660168367e+03,0.000000000000000e+00
	4.350769084117304e+01,0.0

 51	3.548133892335740e+03,0.000000000000000e+00
	4.350676375556760e+01,0.0

 52	3.981071705534956e+03,0.000000000000000e+00
	4.350557821266826e+01,0.0

 53	4.466835921509612e+03,0.000000000000000e+00
	4.350407131972990e+01,0.0

 54	5.011872336272701e+03,0.000000000000000e+00
	4.350216321203931e+01,0.0

 55	5.623413251903467e+03,0.000000000000000e+00
	4.349975288225718e+01,0.0

 56	6.309573444801905e+03,0.000000000000000e+00
	4.349671293110293e+01,0.0

 57	7.079457843841347e+03,0.000000000000000e+00
	4.349288298844739e+01,0.0

 58	7.943282347242779e+03,0.000000000000000e+00
	4.348806149706939e+01,0.0

 59	8.912509381337413e+03,0.000000000000000e+00
	4.348199549025131e+01,0.0

 60	9.999999999999953e+03,0.000000000000000e+00
	4.347436792554082e+01,0.0

 61	1.122018454301958e+04,0.000000000000000e+00
	4.346478206702409e+01,0.0

 62	1.258925411794161e+04,0.000000000000000e+00
	4.345274234444238e+01,0.0

 63	1.412537544622747e+04,0.000000000000000e+00
	4.343763107171017e+01,0.0

 64	1.584893192461106e+04,0.000000000000000e+00
	4.341868040429694e+01,0.0

 65	1.778279410038914e+04,0.000000000000000e+00
	4.339493898746302e+01,0.0

 66	1.995262314968869e+04,0.000000000000000e+00
	4.336523294890885e+01,0.0

 67	2.238721138568328e+04,0.000000000000000e+00
	4.332812129397166e+01,0.0

 68	2.511886431509566e+04,0.000000000000000e+00
	4.328184646585187e+01,0.0

 69	2.818382931264438e+04,0.000000000000000e+00
	4.322428195636957e+01,0.0

 70	3.162277660168361e+04,0.000000000000000e+00
	4.315288050891312e+01,0.0

 71	3.548133892335734e+04,0.000000000000000e+00
	4.306462872095957e+01,0.0

 72	3.981071705534949e+04,0.000000000000000e+00
	4.295601667316178e+01,0.0

 73	4.466835921509604e+04,0.000000000000000e+00
	4.282303428305574e+01,0.0

 74	5.011872336272692e+04,0.000000000000000e+00
	4.266120869081202e+01,0.0

 75	5.623413251903455e+04,0.000000000000000e+00
	4.246569790523716e+01,0.0

 76	6.309573444801892e+04,0.000000000000000e+00
	4.223145348452719e+01,0.0

 77	7.079457843841333e+04,0.000000000000000e+00
	4.195345750195244e+01,0.0

 78	7.943282347242763e+04,0.000000000000000e+00
	4.162702566609522e+01,0.0

 79	8.912509381337395e+04,0.000000000000000e+00
	4.124815060968039e+01,0.0

 80	9.999999999999932e+04,0.000000000000000e+00
	4.081384143826631e+01,0.0

Title: ce02a.cir - 1 transitor circuit
Date: Thu Sep 10 18:01:21  2020
Plotname: AC Analysis
Flags: complex
No. Variables: 2
No. Points: 81
Variables:
	0	frequency	frequency grid=3
	1	outdb	notype
Values:
 0	1.000000000000000e+01,0.000000000000000e+00
	3.759955695884652e+01,0.0

 1	1.122018454301963e+01,0.000000000000000e+00
	3.834083717212260e+01,0.0

 2	1.258925411794167e+01,0.000000000000000e+00
	3.903242304244422e+01,0.0

 3	1.412537544622754e+01,0.000000000000000e+00
	3.967058073539295e+01,0.0

 4	1.584893192461113e+01,0.000000000000000e+00
	4.025244408698464e+01,0.0

 5	1.778279410038922e+01,0.000000000000000e+00
	4.077632807436405e+01,0.0

 6	1.995262314968879e+01,0.000000000000000e+00
	4.124193684572951e+01,0.0

 7	2.238721138568338e+01,0.000000000000000e+00
	4.165042756633255e+01,0.0

 8	2.511886431509578e+01,0.000000000000000e+00
	4.200431942604749e+01,0.0

 9	2.818382931264452e+01,0.000000000000000e+00
	4.230726910805411e+01,0.0

 10	3.162277660168376e+01,0.000000000000000e+00
	4.256375877913150e+01,0.0

 11	3.548133892335751e+01,0.000000000000000e+00
	4.277875277418092e+01,0.0

 12	3.981071705534968e+01,0.000000000000000e+00
	4.295737390061470e+01,0.0

 13	4.466835921509626e+01,0.000000000000000e+00
	4.310463473816747e+01,0.0

 14	5.011872336272717e+01,0.000000000000000e+00
	4.322524064648266e+01,0.0

 15	5.623413251903484e+01,0.000000000000000e+00
	4.332346522724101e+01,0.0

 16	6.309573444801924e+01,0.000000000000000e+00
	4.340308854926681e+01,0.0

 17	7.079457843841369e+01,0.000000000000000e+00
	4.346738365773560e+01,0.0

 18	7.943282347242804e+01,0.000000000000000e+00
	4.351913635949299e+01,0.0

 19	8.912509381337442e+01,0.000000000000000e+00
	4.356068522876876e+01,0.0

 20	9.999999999999984e+01,0.000000000000000e+00
	4.359397173083312e+01,0.0

 21	1.122018454301962e+02,0.000000000000000e+00
	4.362059335661066e+01,0.0

 22	1.258925411794165e+02,0.000000000000000e+00
	4.364185521250640e+01,0.0

 23	1.412537544622752e+02,0.000000000000000e+00
	4.365881745678330e+01,0.0

 24	1.584893192461111e+02,0.000000000000000e+00
	4.367233734279833e+01,0.0

 25	1.778279410038919e+02,0.000000000000000e+00
	4.368310552062930e+01,0.0

 26	1.995262314968876e+02,0.000000000000000e+00
	4.369167678564551e+01,0.0

 27	2.238721138568335e+02,0.000000000000000e+00
	4.369849575040902e+01,0.0

 28	2.511886431509575e+02,0.000000000000000e+00
	4.370391804390205e+01,0.0

 29	2.818382931264447e+02,0.000000000000000e+00
	4.370822766898337e+01,0.0

 30	3.162277660168372e+02,0.000000000000000e+00
	4.371165112009383e+01,0.0

 31	3.548133892335746e+02,0.000000000000000e+00
	4.371436880549356e+01,0.0

 32	3.981071705534962e+02,0.000000000000000e+00
	4.371652424876794e+01,0.0

 33	4.466835921509619e+02,0.000000000000000e+00
	4.371823147493605e+01,0.0

 34	5.011872336272709e+02,0.000000000000000e+00
	4.371958091976562e+01,0.0

 35	5.623413251903476e+02,0.000000000000000e+00
	4.372064414285231e+01,0.0

 36	6.309573444801915e+02,0.000000000000000e+00
	4.372147757328833e+01,0.0

 37	7.079457843841359e+02,0.000000000000000e+00
	4.372212547349229e+01,0.0

 38	7.943282347242791e+02,0.000000000000000e+00
	4.372262227044635e+01,0.0

 39	8.912509381337428e+02,0.000000000000000e+00
	4.372299437258917e+01,0.0

 40	9.999999999999968e+02,0.000000000000000e+00
	4.372326156589396e+01,0.0

 41	1.122018454301960e+03,0.000000000000000e+00
	4.372343806118718e+01,0.0

 42	1.258925411794163e+03,0.000000000000000e+00
	4.372353324688874e+01,0.0

 43	1.412537544622749e+03,0.000000000000000e+00
	4.372355218680678e+01,0.0

 44	1.584893192461108e+03,0.000000000000000e+00
	4.372349588853928e+01,0.0

 45	1.778279410038916e+03,0.000000000000000e+00
	4.372336135708473e+01,0.0

 46	1.995262314968872e+03,0.000000000000000e+00
	4.372314143592207e+01,0.0

 47	2.238721138568331e+03,0.000000000000000e+00
	4.372282442752272e+01,0.0

 48	2.511886431509571e+03,0.000000000000000e+00
	4.372239347358284e+01,0.0

 49	2.818382931264443e+03,0.000000000000000e+00
	4.372182566221289e+01,0.0

 50	3.162277660168367e+03,0.000000000000000e+00
	4.372109081607962e+01,0.0

 51	3.548133892335740e+03,0.000000000000000e+00
	4.372014989831422e+01,0.0

 52	3.981071705534956e+03,0.000000000000000e+00
	4.371895295447295e+01,0.0

 53	4.466835921509612e+03,0.000000000000000e+00
	4.371743648520397e+01,0.0

 54	5.011872336272701e+03,0.000000000000000e+00
	4.371552011658071e+01,0.0

 55	5.623413251903467e+03,0.000000000000000e+00
	4.371310240248921e+01,0.0

 56	6.309573444801905e+03,0.000000000000000e+00
	4.371005555219249e+01,0.0

 57	7.079457843841347e+03,0.000000000000000e+00
	4.370621883095708e+01,0.0

 58	7.943282347242779e+03,0.000000000000000e+00
	4.370139032498769e+01,0.0

 59	8.912509381337413e+03,0.000000000000000e+00
	4.369531670096635e+01,0.0

 60	9.999999999999953e+03,0.000000000000000e+00
	4.368768052175341e+01,0.0

 61	1.122018454301958e+04,0.000000000000000e+00
	4.367808460993074e+01,0.0

 62	1.258925411794161e+04,0.000000000000000e+00
	4.366603288697902e+01,0.0

 63	1.412537544622747e+04,0.000000000000000e+00
	4.365090707028465e+01,0.0

 64	1.584893192461106e+04,0.000000000000000e+00
	4.363193860735186e+01,0.0

 65	1.778279410038914e+04,0.000000000000000e+00
	4.360817529956111e+01,0.0

 66	1.995262314968869e+04,0.000000000000000e+00
	4.357844227006222e+01,0.0

 67	2.238721138568328e+04,0.000000000000000e+00
	4.354129733598126e+01,0.0

 68	2.511886431509566e+04,0.000000000000000e+00
	4.349498155091400e+01,0.0

 69	2.818382931264438e+04,0.000000000000000e+00
	4.343736680862573e+01,0.0

 70	3.162277660168361e+04,0.000000000000000e+00
	4.336590405738573e+01,0.0

 71	3.548133892335734e+04,0.000000000000000e+00
	4.327757794253431e+01,0.0

 72	3.981071705534949e+04,0.000000000000000e+00
	4.316887651632810e+01,0.0

 73	4.466835921509604e+04,0.000000000000000e+00
	4.303578772506368e+01,0.0

 74	5.011872336272692e+04,0.000000000000000e+00
	4.287383698890486e+01,0.0

 75	5.623413251903455e+04,0.000000000000000e+00
	4.267818110070371e+01,0.0

 76	6.309573444801892e+04,0.000000000000000e+00
	4.244377119927377e+01,0.0

 77	7.079457843841333e+04,0.000000000000000e+00
	4.216559002538396e+01,0.0

 78	7.943282347242763e+04,0.000000000000000e+00
	4.183895526568874e+01,0.0

 79	8.912509381337395e+04,0.000000000000000e+00
	4.145986292308770e+01,0.0

 80	9.999999999999932e+04,0.000000000000000e+00
	4.102532674169161e+01,0.0

