Title: ce00a.cir - 1 transitor circuit
Date: Thu Sep  3 19:42:55  2020
Plotname: Transient Analysis
Flags: real
No. Variables: 2
No. Points: 213
Variables:
	0	time	time
	1	v(6)	voltage
Values:
 0	0.000000000000000e+00
	3.019653680419951e+00

 1	1.000000000000000e-07
	3.019611443431061e+00

 2	1.071187189608224e-07
	3.019608209011490e+00

 3	1.213561568824671e-07
	3.019601260630276e+00

 4	1.498310327257567e-07
	3.019584254212692e+00

 5	2.067807844123358e-07
	3.019536367447336e+00

 6	3.206802877854940e-07
	3.019382599508762e+00

 7	5.484792945318104e-07
	3.018869798625453e+00

 8	1.004077308024443e-06
	3.017293139334798e+00

 9	1.636646245079643e-06
	3.014476457530511e+00

 10	2.663432567066795e-06
	3.009419441528046e+00

 11	4.343817964136589e-06
	3.000911115348989e+00

 12	7.704588758276178e-06
	2.983863391783616e+00

 13	1.442613034655535e-05
	2.949752927298931e+00

 14	2.442613034655535e-05
	2.899071830629724e+00

 15	3.442613034655535e-05
	2.848666180087364e+00

 16	4.442613034655535e-05
	2.798751628906937e+00

 17	5.442613034655535e-05
	2.749543953600054e+00

 18	6.442613034655535e-05
	2.701256531854868e+00

 19	7.442613034655535e-05
	2.654100067084786e+00

 20	8.442613034655535e-05
	2.608280888492950e+00

 21	9.442613034655535e-05
	2.564000186666531e+00

 22	1.044261303465553e-04
	2.521452826756438e+00

 23	1.144261303465553e-04
	2.480826351632359e+00

 24	1.244261303465553e-04
	2.442300160486028e+00

 25	1.344261303465553e-04
	2.406044424978387e+00

 26	1.444261303465553e-04
	2.372219539148316e+00

 27	1.544261303465553e-04
	2.340975039772034e+00

 28	1.644261303465553e-04
	2.312449267210686e+00

 29	1.744261303465553e-04
	2.286768346397241e+00

 30	1.844261303465553e-04
	2.264046019641043e+00

 31	1.944261303465553e-04
	2.244382722482291e+00

 32	2.044261303465553e-04
	2.227865563321522e+00

 33	2.144261303465553e-04
	2.214567514579183e+00

 34	2.244261303465553e-04
	2.204547523080818e+00

 35	2.344261303465553e-04
	2.197849828627122e+00

 36	2.444261303465553e-04
	2.194504195236342e+00

 37	2.544261303465554e-04
	2.194525364330931e+00

 38	2.644261303465554e-04
	2.197913401180911e+00

 39	2.744261303465554e-04
	2.204653287185016e+00

 40	2.844261303465554e-04
	2.214715378784282e+00

 41	2.944261303465555e-04
	2.228055141748637e+00

 42	3.044261303465555e-04
	2.244613721751427e+00

 43	3.144261303465555e-04
	2.264317822604664e+00

 44	3.244261303465555e-04
	2.287080388769184e+00

 45	3.344261303465556e-04
	2.312800628685104e+00

 46	3.444261303465556e-04
	2.341364809843625e+00

 47	3.544261303465556e-04
	2.372646427459709e+00

 48	3.644261303465556e-04
	2.406507112402458e+00

 49	3.744261303465557e-04
	2.442796944205381e+00

 50	3.844261303465557e-04
	2.481355471081946e+00

 51	3.944261303465557e-04
	2.522012164452627e+00

 52	4.044261303465558e-04
	2.564587548213393e+00

 53	4.144261303465558e-04
	2.608893789256017e+00

 54	4.244261303465558e-04
	2.654735929947857e+00

 55	4.344261303465558e-04
	2.701912605107291e+00

 56	4.444261303465559e-04
	2.750217366843407e+00

 57	4.544261303465559e-04
	2.799439512779622e+00

 58	4.644261303465559e-04
	2.849365485714208e+00

 59	4.744261303465559e-04
	2.899779790220911e+00

 60	4.844261303465560e-04
	2.950466440796433e+00

 61	4.944261303465560e-04
	3.001209934230412e+00

 62	5.044261303465560e-04
	3.051796709137362e+00

 63	5.144261303465560e-04
	3.102016130143225e+00

 64	5.244261303465561e-04
	3.151661909745531e+00

 65	5.344261303465561e-04
	3.200533048578992e+00

 66	5.444261303465561e-04
	3.248435159100735e+00

 67	5.544261303465561e-04
	3.295181296156932e+00

 68	5.644261303465562e-04
	3.340593113924784e+00

 69	5.744261303465562e-04
	3.384501516097083e+00

 70	5.844261303465562e-04
	3.426747576412674e+00

 71	5.944261303465563e-04
	3.467182941902679e+00

 72	6.044261303465563e-04
	3.505670457249387e+00

 73	6.144261303465563e-04
	3.542084271151746e+00

 74	6.244261303465563e-04
	3.576310128218329e+00

 75	6.344261303465564e-04
	3.608245158995757e+00

 76	6.444261303465564e-04
	3.637797839785839e+00

 77	6.544261303465564e-04
	3.664887488828188e+00

 78	6.644261303465564e-04
	3.689443939706535e+00

 79	6.744261303465565e-04
	3.711406812618736e+00

 80	6.844261303465565e-04
	3.730724992143503e+00

 81	6.944261303465565e-04
	3.747355783292320e+00

 82	7.044261303465565e-04
	3.761264318245829e+00

 83	7.144261303465566e-04
	3.772422731216753e+00

 84	7.244261303465566e-04
	3.780809631721232e+00

 85	7.344261303465566e-04
	3.786409432326665e+00

 86	7.444261303465566e-04
	3.789212013060784e+00

 87	7.544261303465567e-04
	3.789212309846836e+00

 88	7.644261303465567e-04
	3.786410256820107e+00

 89	7.744261303465567e-04
	3.780810695189283e+00

 90	7.844261303465568e-04
	3.772423624735127e+00

 91	7.944261303465568e-04
	3.761264432347840e+00

 92	8.044261303465568e-04
	3.747354422153105e+00

 93	8.144261303465568e-04
	3.730721302495533e+00

 94	8.244261303465569e-04
	3.711399908540300e+00

 95	8.344261303465569e-04
	3.689432838311506e+00

 96	8.444261303465569e-04
	3.664871243694687e+00

 97	8.544261303465569e-04
	3.637775479937394e+00

 98	8.644261303465570e-04
	3.608215827855051e+00

 99	8.744261303465570e-04
	3.576273021476772e+00

 100	8.844261303465570e-04
	3.542038777318150e+00

 101	8.944261303465570e-04
	3.505616089426564e+00

 102	9.044261303465571e-04
	3.467119475723083e+00

 103	9.144261303465571e-04
	3.426674970907871e+00

 104	9.244261303465571e-04
	3.384420045184121e+00

 105	9.344261303465571e-04
	3.340503272429003e+00

 106	9.444261303465572e-04
	3.295083922150188e+00

 107	9.544261303465572e-04
	3.248331322572172e+00

 108	9.644261303465572e-04
	3.200424163561937e+00

 109	9.744261303465572e-04
	3.151549604873326e+00

 110	9.844261303465572e-04
	3.101902351298451e+00

 111	9.944261303465572e-04
	3.051683572945342e+00

 112	1.004426130346557e-03
	3.001099823600418e+00

 113	1.014426130346557e-03
	2.950361843892573e+00

 114	1.024426130346557e-03
	2.899683392629771e+00

 115	1.034426130346557e-03
	2.849279998538067e+00

 116	1.044426130346557e-03
	2.799367765960064e+00

 117	1.054426130346557e-03
	2.750162130581561e+00

 118	1.064426130346557e-03
	2.701876689242085e+00

 119	1.074426130346557e-03
	2.654722002925261e+00

 120	1.084426130346557e-03
	2.608904488245388e+00

 121	1.094426130346557e-03
	2.564625299327155e+00

 122	1.104426130346557e-03
	2.522079307570405e+00

 123	1.114426130346558e-03
	2.481454084032287e+00

 124	1.124426130346558e-03
	2.442928985031097e+00

 125	1.134426130346558e-03
	2.406674248767894e+00

 126	1.144426130346558e-03
	2.372850197466240e+00

 127	1.154426130346558e-03
	2.341606456133145e+00

 128	1.164426130346558e-03
	2.313081277046699e+00

 129	1.174426130346558e-03
	2.287400884550432e+00

 130	1.184426130346558e-03
	2.264678924473782e+00

 131	1.194426130346558e-03
	2.245015936388756e+00

 132	1.204426130346558e-03
	2.228498928685492e+00

 133	1.214426130346558e-03
	2.215200978378534e+00

 134	1.224426130346558e-03
	2.205180931716952e+00

 135	1.234426130346558e-03
	2.198483131203880e+00

 136	1.244426130346558e-03
	2.195137241483786e+00

 137	1.254426130346558e-03
	2.195158103358276e+00

 138	1.264426130346558e-03
	2.198545684967479e+00

 139	1.274426130346558e-03
	2.205285062967770e+00

 140	1.284426130346558e-03
	2.215346499502881e+00

 141	1.294426130346558e-03
	2.228685551115240e+00

 142	1.304426130346558e-03
	2.245243272316896e+00

 143	1.314426130346558e-03
	2.264946453102199e+00

 144	1.324426130346558e-03
	2.287707950077138e+00

 145	1.334426130346558e-03
	2.313427053342736e+00

 146	1.344426130346558e-03
	2.341989945917485e+00

 147	1.354426130346558e-03
	2.373270200370773e+00

 148	1.364426130346558e-03
	2.407129366532347e+00

 149	1.374426130346558e-03
	2.443417597287969e+00

 150	1.384426130346558e-03
	2.481974363325571e+00

 151	1.394426130346558e-03
	2.522629205792727e+00

 152	1.404426130346558e-03
	2.565202574705621e+00

 153	1.414426130346558e-03
	2.609506703540703e+00

 154	1.424426130346558e-03
	2.655346564623340e+00

 155	1.434426130346558e-03
	2.702520856761988e+00

 156	1.444426130346558e-03
	2.750823066161451e+00

 157	1.454426130346558e-03
	2.800042552483620e+00

 158	1.464426130346558e-03
	2.849965697154981e+00

 159	1.474426130346558e-03
	2.900377065555045e+00

 160	1.484426130346558e-03
	2.951060615831009e+00

 161	1.494426130346559e-03
	3.001800905124629e+00

 162	1.504426130346559e-03
	3.052384321281368e+00

 163	1.514426130346559e-03
	3.102600289618682e+00

 164	1.524426130346559e-03
	3.152242478044571e+00

 165	1.534426130346559e-03
	3.201109948939545e+00

 166	1.544426130346559e-03
	3.249008276874393e+00

 167	1.554426130346559e-03
	3.295750580100481e+00

 168	1.564426130346559e-03
	3.341158481958700e+00

 169	1.574426130346559e-03
	3.385062951493682e+00

 170	1.584426130346559e-03
	3.427305038719912e+00

 171	1.594426130346559e-03
	3.467736457867869e+00

 172	1.604426130346559e-03
	3.506220036615565e+00

 173	1.614426130346559e-03
	3.542629992092862e+00

 174	1.624426130346559e-03
	3.576852057712736e+00

 175	1.634426130346559e-03
	3.608783432489464e+00

 176	1.644426130346559e-03
	3.638332585874347e+00

 177	1.654426130346559e-03
	3.665418902879210e+00

 178	1.664426130346559e-03
	3.689972212640822e+00

 179	1.674426130346559e-03
	3.711932198320154e+00

 180	1.684426130346559e-03
	3.731247740193383e+00

 181	1.694426130346559e-03
	3.747876200139791e+00

 182	1.704426130346559e-03
	3.761782703886682e+00

 183	1.714426130346559e-03
	3.772939434247989e+00

 184	1.724426130346559e-03
	3.781324990067132e+00

 185	1.734426130346559e-03
	3.786923822515716e+00

 186	1.744426130346559e-03
	3.789725795130277e+00

 187	1.754426130346559e-03
	3.789725871369839e+00

 188	1.764426130346559e-03
	3.786923962179502e+00

 189	1.774426130346559e-03
	3.781324924966235e+00

 190	1.784426130346559e-03
	3.772938729524369e+00

 191	1.794426130346559e-03
	3.761780768218409e+00

 192	1.804426130346559e-03
	3.747872309098904e+00

 193	1.814426130346559e-03
	3.731241056670096e+00

 194	1.824426130346559e-03
	3.711921805320090e+00

 195	1.834426130346559e-03
	3.689957141975285e+00

 196	1.844426130346559e-03
	3.665398174931519e+00

 197	1.854426130346559e-03
	3.638305243491036e+00

 198	1.864426130346559e-03
	3.608748584196852e+00

 199	1.874426130346560e-03
	3.576808912792686e+00

 200	1.884426130346560e-03
	3.542577902888094e+00

 201	1.894426130346560e-03
	3.506158530220627e+00

 202	1.904426130346560e-03
	3.467665272921151e+00

 203	1.914426130346560e-03
	3.427224149210630e+00

 204	1.924426130346560e-03
	3.384972593910026e+00

 205	1.934426130346560e-03
	3.341059167536490e+00

 206	1.944426130346560e-03
	3.295643109348897e+00

 207	1.954426130346559e-03
	3.248893738051740e+00

 208	1.964426130346560e-03
	3.200989718587031e+00

 209	1.974426130346560e-03
	3.152118205222337e+00

 210	1.984426130346560e-03
	3.102473882920927e+00

 211	1.994426130346560e-03
	3.052257920114422e+00

 212	2.000000000000000e-03
	3.024095030126397e+00

Title: ce00a.cir - 1 transitor circuit
Date: Thu Sep  3 19:42:55  2020
Plotname: Transient Analysis
Flags: real
No. Variables: 2
No. Points: 212
Variables:
	0	time	time
	1	v(6)	voltage
Values:
 0	0.000000000000000e+00
	2.652827720645035e+00

 1	1.000000000000000e-07
	2.652750366926223e+00

 2	1.116959590429464e-07
	2.652740923659400e+00

 3	1.350878771288392e-07
	2.652721110675789e+00

 4	1.818717133006249e-07
	2.652674339452836e+00

 5	2.754393856441963e-07
	2.652543511820751e+00

 6	4.625747303313390e-07
	2.652122972941451e+00

 7	8.368454197056243e-07
	2.650780266764460e+00

 8	1.524067194724838e-06
	2.647361341049624e+00

 9	2.402867838780547e-06
	2.642288210608567e+00

 10	3.968287570899050e-06
	2.632900885476684e+00

 11	6.799103224649350e-06
	2.615830896040081e+00

 12	1.246073453214995e-05
	2.581685356592095e+00

 13	2.246073453214995e-05
	2.521411489033009e+00

 14	3.246073453214995e-05
	2.461415822909882e+00

 15	4.246073453214994e-05
	2.401951439719742e+00

 16	5.246073453214994e-05
	2.343277528848260e+00

 17	6.246073453214994e-05
	2.285646188634405e+00

 18	7.246073453214994e-05
	2.229310186922935e+00

 19	8.246073453214994e-05
	2.174514480499961e+00

 20	9.246073453214994e-05
	2.121500462052361e+00

 21	1.024607345321499e-04
	2.070500392489391e+00

 22	1.124607345321499e-04
	2.021739555559779e+00

 23	1.224607345321499e-04
	1.975432553329900e+00

 24	1.324607345321499e-04
	1.931784232332777e+00

 25	1.424607345321499e-04
	1.890987186353356e+00

 26	1.524607345321499e-04
	1.853221990971071e+00

 27	1.624607345321499e-04
	1.818655504733057e+00

 28	1.724607345321499e-04
	1.787440743063951e+00

 29	1.824607345321499e-04
	1.759715723250905e+00

 30	1.924607345321499e-04
	1.735603180079528e+00

 31	2.024607345321499e-04
	1.715209796501316e+00

 32	2.124607345321499e-04
	1.698625883881606e+00

 33	2.224607345321499e-04
	1.685924900775104e+00

 34	2.324607345321499e-04
	1.677163172374759e+00

 35	2.424607345321499e-04
	1.672379638191240e+00

 36	2.524607345321499e-04
	1.671595656544709e+00

 37	2.624607345321499e-04
	1.674814946377764e+00

 38	2.724607345321499e-04
	1.682023505800012e+00

 39	2.824607345321500e-04
	1.693189728632672e+00

 40	2.924607345321500e-04
	1.708264455942230e+00

 41	3.024607345321500e-04
	1.727181257091643e+00

 42	3.124607345321500e-04
	1.749856626718180e+00

 43	3.224607345321501e-04
	1.776190424985109e+00

 44	3.324607345321501e-04
	1.806066227740840e+00

 45	3.424607345321501e-04
	1.839351922799659e+00

 46	3.524607345321501e-04
	1.875900217321097e+00

 47	3.624607345321502e-04
	1.915549387290552e+00

 48	3.724607345321502e-04
	1.958123943056194e+00

 49	3.824607345321502e-04
	2.003435528416067e+00

 50	3.924607345321502e-04
	2.051283742238851e+00

 51	4.024607345321503e-04
	2.101457181787404e+00

 52	4.124607345321503e-04
	2.153734414909958e+00

 53	4.224607345321503e-04
	2.207885159022633e+00

 54	4.324607345321503e-04
	2.263671393759035e+00

 55	4.424607345321504e-04
	2.320848662076155e+00

 56	4.524607345321504e-04
	2.379167306719341e+00

 57	4.624607345321504e-04
	2.438373872577206e+00

 58	4.724607345321504e-04
	2.498212441478806e+00

 59	4.824607345321505e-04
	2.558426104979885e+00

 60	4.924607345321505e-04
	2.618758360612761e+00

 61	5.024607345321505e-04
	2.678954611819401e+00

 62	5.124607345321506e-04
	2.738763575291218e+00

 63	5.224607345321506e-04
	2.797938750764661e+00

 64	5.324607345321506e-04
	2.856239774772067e+00

 65	5.424607345321506e-04
	2.913433789331442e+00

 66	5.524607345321507e-04
	2.969296664988007e+00

 67	5.624607345321507e-04
	3.023614187292219e+00

 68	5.724607345321507e-04
	3.076183065139464e+00

 69	5.824607345321507e-04
	3.126811851794821e+00

 70	5.924607345321508e-04
	3.175321658024831e+00

 71	6.024607345321508e-04
	3.221546734826612e+00

 72	6.124607345321508e-04
	3.265334828929489e+00

 73	6.224607345321508e-04
	3.306547380839543e+00

 74	6.324607345321509e-04
	3.345059494875707e+00

 75	6.424607345321509e-04
	3.380759748598609e+00

 76	6.524607345321509e-04
	3.413549798304810e+00

 77	6.624607345321509e-04
	3.443343849342004e+00

 78	6.724607345321510e-04
	3.470067973243411e+00

 79	6.824607345321510e-04
	3.493659342709618e+00

 80	6.924607345321510e-04
	3.514065386385421e+00

 81	7.024607345321511e-04
	3.531242934490741e+00

 82	7.124607345321511e-04
	3.545157368605990e+00

 83	7.224607345321511e-04
	3.555781842144758e+00

 84	7.324607345321511e-04
	3.563096585735662e+00

 85	7.424607345321512e-04
	3.567088354195955e+00

 86	7.524607345321512e-04
	3.567750019993235e+00

 87	7.624607345321512e-04
	3.565080355728806e+00

 88	7.724607345321512e-04
	3.559083993254545e+00

 89	7.824607345321513e-04
	3.549771585959760e+00

 90	7.924607345321513e-04
	3.537160140136466e+00

 91	8.024607345321513e-04
	3.521273527597798e+00

 92	8.124607345321513e-04
	3.502143123432938e+00

 93	8.224607345321514e-04
	3.479808571684861e+00

 94	8.324607345321514e-04
	3.454318604523498e+00

 95	8.424607345321514e-04
	3.425731915747752e+00

 96	8.524607345321514e-04
	3.394118002453372e+00

 97	8.624607345321515e-04
	3.359557982268611e+00

 98	8.724607345321515e-04
	3.322145295847458e+00

 99	8.824607345321515e-04
	3.281986316267893e+00

 100	8.924607345321516e-04
	3.239200777519515e+00

 101	9.024607345321516e-04
	3.193922062975643e+00

 102	9.124607345321516e-04
	3.146297272755714e+00

 103	9.224607345321516e-04
	3.096487131469906e+00

 104	9.324607345321517e-04
	3.044665663056946e+00

 105	9.424607345321517e-04
	2.991019712847893e+00

 106	9.524607345321517e-04
	2.935748249784298e+00

 107	9.624607345321517e-04
	2.879061543177440e+00

 108	9.724607345321518e-04
	2.821180150234521e+00

 109	9.824607345321518e-04
	2.762333817676988e+00

 110	9.924607345321518e-04
	2.702760233883257e+00

 111	1.002460734532152e-03
	2.642703738856070e+00

 112	1.012460734532152e-03
	2.582413926202764e+00

 113	1.022460734532152e-03
	2.522144244747302e+00

 114	1.032460734532152e-03
	2.462150530262464e+00

 115	1.042460734532152e-03
	2.402689572786984e+00

 116	1.052460734532152e-03
	2.344017646078587e+00

 117	1.062460734532152e-03
	2.286389101153550e+00

 118	1.072460734532152e-03
	2.230054946971685e+00

 119	1.082460734532152e-03
	2.175261516194969e+00

 120	1.092460734532152e-03
	2.122249136429056e+00

 121	1.102460734532152e-03
	2.071250900883178e+00

 122	1.112460734532152e-03
	2.022491457157205e+00

 123	1.122460734532152e-03
	1.976185904303522e+00

 124	1.132460734532152e-03
	1.932538716207262e+00

 125	1.142460734532152e-03
	1.891742777875182e+00

 126	1.152460734532152e-03
	1.853978452916176e+00

 127	1.162460734532152e-03
	1.819412765498823e+00

 128	1.172460734532152e-03
	1.788198616156546e+00

 129	1.182460734532152e-03
	1.760474111549204e+00

 130	1.192460734532152e-03
	1.736361929514503e+00

 131	1.202460734532152e-03
	1.715968796354241e+00

 132	1.212460734532152e-03
	1.699385000487652e+00

 133	1.222460734532152e-03
	1.686684016221162e+00

 134	1.232460734532152e-03
	1.677922165267176e+00

 135	1.242460734532152e-03
	1.673138386445814e+00

 136	1.252460734532152e-03
	1.672354045323082e+00

 137	1.262460734532153e-03
	1.675572850456816e+00

 138	1.272460734532153e-03
	1.682780812727003e+00

 139	1.282460734532153e-03
	1.693946309954371e+00

 140	1.292460734532153e-03
	1.709020198449635e+00

 141	1.302460734532153e-03
	1.727936028432811e+00

 142	1.312460734532153e-03
	1.750610310508385e+00

 143	1.322460734532153e-03
	1.776942884059603e+00

 144	1.332460734532153e-03
	1.806817340691546e+00

 145	1.342460734532153e-03
	1.840101546736410e+00

 146	1.352460734532153e-03
	1.876648224445043e+00

 147	1.362460734532153e-03
	1.916295628254522e+00

 148	1.372460734532153e-03
	1.958868282795047e+00

 149	1.382460734532153e-03
	2.004177810734897e+00

 150	1.392460734532153e-03
	2.052023824518506e+00

 151	1.402460734532153e-03
	2.102194901124768e+00

 152	1.412460734532153e-03
	2.154469621537493e+00

 153	1.422460734532153e-03
	2.208617684207760e+00

 154	1.432460734532153e-03
	2.264401081897274e+00

 155	1.442460734532153e-03
	2.321575340439880e+00

 156	1.452460734532153e-03
	2.379890816272638e+00

 157	1.462460734532153e-03
	2.439094039630822e+00

 158	1.472460734532153e-03
	2.498929107305701e+00

 159	1.482460734532153e-03
	2.559139099383191e+00

 160	1.492460734532153e-03
	2.619467530421922e+00

 161	1.502460734532153e-03
	2.679659796374009e+00

 162	1.512460734532153e-03
	2.739464633866179e+00

 163	1.522460734532153e-03
	2.798635539919884e+00

 164	1.532460734532153e-03
	2.856932174730797e+00

 165	1.542460734532153e-03
	2.914121683099476e+00

 166	1.552460734532153e-03
	2.969979963622596e+00

 167	1.562460734532153e-03
	3.024292810616137e+00

 168	1.572460734532153e-03
	3.076856965806562e+00

 169	1.582460734532153e-03
	3.127480997333477e+00

 170	1.592460734532153e-03
	3.175986053480145e+00

 171	1.602460734532153e-03
	3.222206405844207e+00

 172	1.612460734532153e-03
	3.265989842661883e+00

 173	1.622460734532153e-03
	3.307197829735792e+00

 174	1.632460734532153e-03
	3.345705515539485e+00

 175	1.642460734532154e-03
	3.381401505898847e+00

 176	1.652460734532154e-03
	3.414187501919140e+00

 177	1.662460734532154e-03
	3.443977737889436e+00

 178	1.672460734532154e-03
	3.470698328291296e+00

 179	1.682460734532154e-03
	3.494286472763247e+00

 180	1.692460734532154e-03
	3.514689638305339e+00

 181	1.702460734532154e-03
	3.531864677294512e+00

 182	1.712460734532154e-03
	3.545777002432431e+00

 183	1.722460734532154e-03
	3.556399782013817e+00

 184	1.732460734532154e-03
	3.563713268361365e+00

 185	1.742460734532154e-03
	3.567704221976206e+00

 186	1.752460734532154e-03
	3.568365526132913e+00

 187	1.762460734532154e-03
	3.565695948871551e+00

 188	1.772460734532154e-03
	3.559700121435249e+00

 189	1.782460734532154e-03
	3.550388682310662e+00

 190	1.792460734532154e-03
	3.537778626270164e+00

 191	1.802460734532154e-03
	3.521893800784653e+00

 192	1.812460734532154e-03
	3.502765559953505e+00

 193	1.822460734532154e-03
	3.480433515813362e+00

 194	1.832460734532154e-03
	3.454946372284148e+00

 195	1.842460734532154e-03
	3.426362785909606e+00

 196	1.852460734532154e-03
	3.394752220969961e+00

 197	1.862460734532154e-03
	3.360195755295944e+00

 198	1.872460734532154e-03
	3.322786794994138e+00

 199	1.882460734532154e-03
	3.282631673492610e+00

 200	1.892460734532154e-03
	3.239850091111326e+00

 201	1.902460734532154e-03
	3.194575394058901e+00

 202	1.912460734532154e-03
	3.146954651799249e+00

 203	1.922460734532154e-03
	3.097148556008018e+00

 204	1.932460734532154e-03
	3.045331104471720e+00

 205	1.942460734532154e-03
	2.991689114902976e+00

 206	1.952460734532154e-03
	2.936421535382769e+00

 207	1.962460734532154e-03
	2.879738613335073e+00

 208	1.972460734532154e-03
	2.821860890578078e+00

 209	1.982460734532154e-03
	2.763018097562131e+00

 210	1.992460734532154e-03
	2.703447912426169e+00

 211	2.000000000000000e-03
	2.658202496570988e+00

Title: ce00a.cir - 1 transitor circuit
Date: Thu Sep  3 19:42:55  2020
Plotname: Transient Analysis
Flags: real
No. Variables: 2
No. Points: 213
Variables:
	0	time	time
	1	v(6)	voltage
Values:
 0	0.000000000000000e+00
	2.299166377132427e+00

 1	1.000000000000000e-07
	2.299104855344352e+00

 2	1.083307239206182e-07
	2.299099414768265e+00

 3	1.249921717618545e-07
	2.299087858962645e+00

 4	1.583150674443272e-07
	2.299060163828158e+00

 5	2.249608588092725e-07
	2.298982976961196e+00

 6	3.582524415391631e-07
	2.298733243568810e+00

 7	6.248356069989444e-07
	2.297890494180612e+00

 8	1.158001937918507e-06
	2.295296552014568e+00

 9	1.880492609271356e-06
	2.290816384770445e+00

 10	3.057552672901515e-06
	2.282825928575286e+00

 11	4.996494207006069e-06
	2.269355123500874e+00

 12	8.874377275215177e-06
	2.242381171816328e+00

 13	1.663014341163339e-05
	2.188416169052763e+00

 14	2.663014341163339e-05
	2.118979908681709e+00

 15	3.663014341163339e-05
	2.049982957280883e+00

 16	4.663014341163339e-05
	1.981720975600532e+00

 17	5.663014341163339e-05
	1.914489208538746e+00

 18	6.663014341163339e-05
	1.848579532408409e+00

 19	7.663014341163339e-05
	1.784279514292812e+00

 20	8.663014341163339e-05
	1.721870724702200e+00

 21	9.663014341163339e-05
	1.661627034437477e+00

 22	1.066301434116334e-04
	1.603813694826678e+00

 23	1.166301434116334e-04
	1.548685301350413e+00

 24	1.266301434116334e-04
	1.496485375057264e+00

 25	1.366301434116334e-04
	1.447444236403847e+00

 26	1.466301434116334e-04
	1.401778926793340e+00

 27	1.566301434116334e-04
	1.359691136310836e+00

 28	1.666301434116334e-04
	1.321367367253443e+00

 29	1.766301434116334e-04
	1.286976996669094e+00

 30	1.866301434116334e-04
	1.256672620889151e+00

 31	1.966301434116334e-04
	1.230588294859158e+00

 32	2.066301434116334e-04
	1.208840019241543e+00

 33	2.166301434116334e-04
	1.191524176052050e+00

 34	2.266301434116334e-04
	1.178718135529344e+00

 35	2.366301434116334e-04
	1.170478897279752e+00

 36	2.466301434116334e-04
	1.166843807296613e+00

 37	2.566301434116334e-04
	1.167829412029007e+00

 38	2.666301434116334e-04
	1.173432287572851e+00

 39	2.766301434116334e-04
	1.183628115943260e+00

 40	2.866301434116334e-04
	1.198372636407990e+00

 41	2.966301434116335e-04
	1.217600953756431e+00

 42	3.066301434116335e-04
	1.241228623648154e+00

 43	3.166301434116335e-04
	1.269151199131878e+00

 44	3.266301434116335e-04
	1.301245458345873e+00

 45	3.366301434116336e-04
	1.337369189291447e+00

 46	3.466301434116336e-04
	1.377362562448137e+00

 47	3.566301434116336e-04
	1.421048147989018e+00

 48	3.666301434116336e-04
	1.468232431255363e+00

 49	3.766301434116337e-04
	1.518706053079110e+00

 50	3.866301434116337e-04
	1.572245463452733e+00

 51	3.966301434116337e-04
	1.628613373938926e+00

 52	4.066301434116338e-04
	1.687560543038454e+00

 53	4.166301434116338e-04
	1.748826427879001e+00

 54	4.266301434116338e-04
	1.812141091819051e+00

 55	4.366301434116338e-04
	1.877226038931925e+00

 56	4.466301434116339e-04
	1.943796228796592e+00

 57	4.566301434116339e-04
	2.011561070606962e+00

 58	4.666301434116339e-04
	2.080226521207839e+00

 59	4.766301434116339e-04
	2.149496205516734e+00

 60	4.866301434116340e-04
	2.219073561585030e+00

 61	4.966301434116340e-04
	2.288663040599395e+00

 62	5.066301434116340e-04
	2.357972247590831e+00

 63	5.166301434116340e-04
	2.426713158542919e+00

 64	5.266301434116341e-04
	2.494604188673759e+00

 65	5.366301434116341e-04
	2.561371348053565e+00

 66	5.466301434116341e-04
	2.626750153797384e+00

 67	5.566301434116341e-04
	2.690486632383239e+00

 68	5.666301434116342e-04
	2.752338981619334e+00

 69	5.766301434116342e-04
	2.812078322267928e+00

 70	5.866301434116342e-04
	2.869490015578748e+00

 71	5.966301434116343e-04
	2.924374074236427e+00

 72	6.066301434116343e-04
	2.976546056737928e+00

 73	6.166301434116343e-04
	3.025837072721192e+00

 74	6.266301434116343e-04
	3.072094209799763e+00

 75	6.366301434116344e-04
	3.115180112278759e+00

 76	6.466301434116344e-04
	3.154972948168463e+00

 77	6.566301434116344e-04
	3.191365599149572e+00

 78	6.666301434116344e-04
	3.224265238288837e+00

 79	6.766301434116345e-04
	3.253592232808989e+00

 80	6.866301434116345e-04
	3.279279463854447e+00

 81	6.966301434116345e-04
	3.301271097736991e+00

 82	7.066301434116345e-04
	3.319521822940704e+00

 83	7.166301434116346e-04
	3.333995675482570e+00

 84	7.266301434116346e-04
	3.344665382333479e+00

 85	7.366301434116346e-04
	3.351511422504874e+00

 86	7.466301434116346e-04
	3.354521644120584e+00

 87	7.566301434116347e-04
	3.353690702999705e+00

 88	7.666301434116347e-04
	3.349020065382219e+00

 89	7.766301434116347e-04
	3.340517897078267e+00

 90	7.866301434116347e-04
	3.328199485926365e+00

 91	7.966301434116348e-04
	3.312087570701014e+00

 92	8.066301434116348e-04
	3.292213132593472e+00

 93	8.166301434116348e-04
	3.268616071085829e+00

 94	8.266301434116349e-04
	3.241346239455414e+00

 95	8.366301434116349e-04
	3.210464311448858e+00

 96	8.466301434116349e-04
	3.176042887047076e+00

 97	8.566301434116349e-04
	3.138167361556495e+00

 98	8.666301434116350e-04
	3.096936913865135e+00

 99	8.766301434116350e-04
	3.052465193720572e+00

 100	8.866301434116350e-04
	3.004881026141562e+00

 101	8.966301434116350e-04
	2.954328769486187e+00

 102	9.066301434116351e-04
	2.900968618794680e+00

 103	9.166301434116351e-04
	2.844976545332052e+00

 104	9.266301434116351e-04
	2.786544144564982e+00

 105	9.366301434116351e-04
	2.725878132226039e+00

 106	9.466301434116352e-04
	2.663199744319567e+00

 107	9.566301434116352e-04
	2.598743821449398e+00

 108	9.666301434116352e-04
	2.532757817130017e+00

 109	9.766301434116352e-04
	2.465500542266312e+00

 110	9.866301434116353e-04
	2.397240868289202e+00

 111	9.966301434116353e-04
	2.328256224697172e+00

 112	1.006630143411635e-03
	2.258831095220627e+00

 113	1.016630143411635e-03
	2.189255365439827e+00

 114	1.026630143411635e-03
	2.119822707374402e+00

 115	1.036630143411635e-03
	2.050828866363042e+00

 116	1.046630143411635e-03
	1.982570017586067e+00

 117	1.056630143411635e-03
	1.915341067094510e+00

 118	1.066630143411635e-03
	1.849434047732504e+00

 119	1.076630143411636e-03
	1.785136492824698e+00

 120	1.086630143411636e-03
	1.722729922512082e+00

 121	1.096630143411636e-03
	1.662488332887239e+00

 122	1.106630143411636e-03
	1.604676808937577e+00

 123	1.116630143411636e-03
	1.549550158320719e+00

 124	1.126630143411636e-03
	1.497351674617342e+00

 125	1.136630143411636e-03
	1.448311933747276e+00

 126	1.146630143411636e-03
	1.402647721113636e+00

 127	1.156630143411636e-03
	1.360560999563712e+00

 128	1.166630143411636e-03
	1.322238005864403e+00

 129	1.176630143411636e-03
	1.287848391894945e+00

 130	1.186630143411636e-03
	1.257544489667253e+00

 131	1.196630143411636e-03
	1.231460622381272e+00

 132	1.206630143411636e-03
	1.209712533429388e+00

 133	1.216630143411636e-03
	1.192396861827086e+00

 134	1.226630143411636e-03
	1.179590730571517e+00

 135	1.236630143411636e-03
	1.171351382810408e+00

 136	1.246630143411636e-03
	1.167715928672119e+00

 137	1.256630143411636e-03
	1.168701143972129e+00

 138	1.266630143411636e-03
	1.174303380836337e+00

 139	1.276630143411636e-03
	1.184498536607513e+00

 140	1.286630143411636e-03
	1.199242138484288e+00

 141	1.296630143411636e-03
	1.218469493163140e+00

 142	1.306630143411636e-03
	1.242095955850947e+00

 143	1.316630143411636e-03
	1.270017268865073e+00

 144	1.326630143411636e-03
	1.302110021047133e+00

 145	1.336630143411636e-03
	1.338232177818921e+00

 146	1.346630143411636e-03
	1.378223730977241e+00

 147	1.356630143411636e-03
	1.421907417090658e+00

 148	1.366630143411636e-03
	1.469089552870014e+00

 149	1.376630143411636e-03
	1.519560935345625e+00

 150	1.386630143411636e-03
	1.573097855497856e+00

 151	1.396630143411636e-03
	1.629463171767821e+00

 152	1.406630143411636e-03
	1.688407492974114e+00

 153	1.416630143411636e-03
	1.749670414766873e+00

 154	1.426630143411636e-03
	1.812981860059613e+00

 155	1.436630143411636e-03
	1.878063464149653e+00

 156	1.446630143411636e-03
	1.944630055521823e+00

 157	1.456630143411637e-03
	2.012391168440478e+00
